 Title Card Required
GAUSSIAN             21 MOL ORBITALS    156 PRIMITIVES       12 NUCLEI
  C    1    (CENTRE  1)  -0.59104605  2.55648703  0.00000381  CHARGE =  6.0
  C    2    (CENTRE  2)  -2.50955664  0.76627453  0.00003046  CHARGE =  6.0
  C    3    (CENTRE  3)  -1.91847526 -1.79010004  0.00001471  CHARGE =  6.0
  C    4    (CENTRE  4)   0.59116216 -2.55646024  0.00000947  CHARGE =  6.0
  C    5    (CENTRE  5)   2.50952236 -0.76638747 -0.00000251  CHARGE =  6.0
  C    6    (CENTRE  6)   1.91839335  1.79018735 -0.00001778  CHARGE =  6.0
  H    7    (CENTRE  7)  -1.04799131  4.53230565  0.00000322  CHARGE =  1.0
  H    8    (CENTRE  8)  -4.44908148  1.35865234 -0.00011108  CHARGE =  1.0
  H    9    (CENTRE  9)  -3.40110622 -3.17374693 -0.00007730  CHARGE =  1.0
  H   10    (CENTRE 10)   1.04789597 -4.53232894 -0.00007693  CHARGE =  1.0
  H   11    (CENTRE 11)   4.44911165 -1.35856163  0.00006148  CHARGE =  1.0
  H   12    (CENTRE 12)   3.40117187  3.17367256 -0.00002832  CHARGE =  1.0
CENTRE ASSIGNMENTS    1  1  1  1  1  1  1  1  1  1  1  1  1  1  1  1  1  1  1  1
CENTRE ASSIGNMENTS    1  1  2  2  2  2  2  2  2  2  2  2  2  2  2  2  2  2  2  2
CENTRE ASSIGNMENTS    2  2  2  2  3  3  3  3  3  3  3  3  3  3  3  3  3  3  3  3
CENTRE ASSIGNMENTS    3  3  3  3  3  3  4  4  4  4  4  4  4  4  4  4  4  4  4  4
CENTRE ASSIGNMENTS    4  4  4  4  4  4  4  4  5  5  5  5  5  5  5  5  5  5  5  5
CENTRE ASSIGNMENTS    5  5  5  5  5  5  5  5  5  5  6  6  6  6  6  6  6  6  6  6
CENTRE ASSIGNMENTS    6  6  6  6  6  6  6  6  6  6  6  6  7  7  7  7  8  8  8  8
CENTRE ASSIGNMENTS    9  9  9  9 10 10 10 10 11 11 11 11 12 12 12 12
TYPE ASSIGNMENTS      1  1  1  1  1  1  1  1  1  2  2  2  3  3  3  4  4  4  1  2
TYPE ASSIGNMENTS      3  4  1  1  1  1  1  1  1  1  1  2  2  2  3  3  3  4  4  4
TYPE ASSIGNMENTS      1  2  3  4  1  1  1  1  1  1  1  1  1  2  2  2  3  3  3  4
TYPE ASSIGNMENTS      4  4  1  2  3  4  1  1  1  1  1  1  1  1  1  2  2  2  3  3
TYPE ASSIGNMENTS      3  4  4  4  1  2  3  4  1  1  1  1  1  1  1  1  1  2  2  2
TYPE ASSIGNMENTS      3  3  3  4  4  4  1  2  3  4  1  1  1  1  1  1  1  1  1  2
TYPE ASSIGNMENTS      2  2  3  3  3  4  4  4  1  2  3  4  1  1  1  1  1  1  1  1
TYPE ASSIGNMENTS      1  1  1  1  1  1  1  1  1  1  1  1  1  1  1  1
EXPONENTS  0.3047525D+04 0.4573695D+03 0.1039487D+03 0.2921016D+02 0.9286663D+01
EXPONENTS  0.3163927D+01 0.7868272D+01 0.1881289D+01 0.5442493D+00 0.7868272D+01
EXPONENTS  0.1881289D+01 0.5442493D+00 0.7868272D+01 0.1881289D+01 0.5442493D+00
EXPONENTS  0.7868272D+01 0.1881289D+01 0.5442493D+00 0.1687145D+00 0.1687145D+00
EXPONENTS  0.1687145D+00 0.1687145D+00 0.3047525D+04 0.4573695D+03 0.1039487D+03
EXPONENTS  0.2921016D+02 0.9286663D+01 0.3163927D+01 0.7868272D+01 0.1881289D+01
EXPONENTS  0.5442493D+00 0.7868272D+01 0.1881289D+01 0.5442493D+00 0.7868272D+01
EXPONENTS  0.1881289D+01 0.5442493D+00 0.7868272D+01 0.1881289D+01 0.5442493D+00
EXPONENTS  0.1687145D+00 0.1687145D+00 0.1687145D+00 0.1687145D+00 0.3047525D+04
EXPONENTS  0.4573695D+03 0.1039487D+03 0.2921016D+02 0.9286663D+01 0.3163927D+01
EXPONENTS  0.7868272D+01 0.1881289D+01 0.5442493D+00 0.7868272D+01 0.1881289D+01
EXPONENTS  0.5442493D+00 0.7868272D+01 0.1881289D+01 0.5442493D+00 0.7868272D+01
EXPONENTS  0.1881289D+01 0.5442493D+00 0.1687145D+00 0.1687145D+00 0.1687145D+00
EXPONENTS  0.1687145D+00 0.3047525D+04 0.4573695D+03 0.1039487D+03 0.2921016D+02
EXPONENTS  0.9286663D+01 0.3163927D+01 0.7868272D+01 0.1881289D+01 0.5442493D+00
EXPONENTS  0.7868272D+01 0.1881289D+01 0.5442493D+00 0.7868272D+01 0.1881289D+01
EXPONENTS  0.5442493D+00 0.7868272D+01 0.1881289D+01 0.5442493D+00 0.1687145D+00
EXPONENTS  0.1687145D+00 0.1687145D+00 0.1687145D+00 0.3047525D+04 0.4573695D+03
EXPONENTS  0.1039487D+03 0.2921016D+02 0.9286663D+01 0.3163927D+01 0.7868272D+01
EXPONENTS  0.1881289D+01 0.5442493D+00 0.7868272D+01 0.1881289D+01 0.5442493D+00
EXPONENTS  0.7868272D+01 0.1881289D+01 0.5442493D+00 0.7868272D+01 0.1881289D+01
EXPONENTS  0.5442493D+00 0.1687145D+00 0.1687145D+00 0.1687145D+00 0.1687145D+00
EXPONENTS  0.3047525D+04 0.4573695D+03 0.1039487D+03 0.2921016D+02 0.9286663D+01
EXPONENTS  0.3163927D+01 0.7868272D+01 0.1881289D+01 0.5442493D+00 0.7868272D+01
EXPONENTS  0.1881289D+01 0.5442493D+00 0.7868272D+01 0.1881289D+01 0.5442493D+00
EXPONENTS  0.7868272D+01 0.1881289D+01 0.5442493D+00 0.1687145D+00 0.1687145D+00
EXPONENTS  0.1687145D+00 0.1687145D+00 0.1873114D+02 0.2825394D+01 0.6401217D+00
EXPONENTS  0.1612778D+00 0.1873114D+02 0.2825394D+01 0.6401217D+00 0.1612778D+00
EXPONENTS  0.1873114D+02 0.2825394D+01 0.6401217D+00 0.1612778D+00 0.1873114D+02
EXPONENTS  0.2825394D+01 0.6401217D+00 0.1612778D+00 0.1873114D+02 0.2825394D+01
EXPONENTS  0.6401217D+00 0.1612778D+00 0.1873114D+02 0.2825394D+01 0.6401217D+00
EXPONENTS  0.1612778D+00
MO    1     MO 0.0        OCC NO =    2.0000000  ORB. ENERGY =  -11.235068
  0.21801270D+00  0.40219086D+00  0.64926075D+00  0.84514459D+00  0.72116341D+00
  0.24900039D+00 -0.37686208D-02 -0.17369539D-02  0.48706000D-02 -0.16264028D-04
 -0.12470225D-04 -0.62235163D-05  0.70553107D-04  0.54095648D-04  0.26997519D-04
  0.99568869D-08  0.76343094D-08  0.38100554D-08 -0.54187106D-03  0.16423774D-04
 -0.71021633D-04 -0.36092610D-08  0.21799765D+00  0.40216311D+00  0.64921595D+00
  0.84508626D+00  0.72111364D+00  0.24898321D+00 -0.37682980D-02 -0.17368051D-02
  0.48701828D-02 -0.69277893D-04 -0.53117895D-04 -0.26509552D-04  0.21135284D-04
  0.16205195D-04  0.80875280D-05 -0.38245951D-07 -0.29324570D-07 -0.14635015D-07
 -0.54159359D-03  0.69787183D-04 -0.21328984D-04  0.10892555D-07  0.21804402D+00
  0.40224864D+00  0.64935402D+00  0.84526600D+00  0.72126701D+00  0.24903616D+00
 -0.37691687D-02 -0.17372064D-02  0.48713081D-02 -0.52986934D-04 -0.40627020D-04
 -0.20275730D-04 -0.49316906D-04 -0.37813076D-04 -0.18871375D-04 -0.83193950D-08
 -0.63787844D-08 -0.31834605D-08 -0.54189603D-03  0.53336529D-04  0.49718017D-04
  0.35999041D-09  0.21807421D+00  0.40230433D+00  0.64944393D+00  0.84538303D+00
  0.72136687D+00  0.24907064D+00 -0.37697296D-02 -0.17374649D-02  0.48720331D-02
  0.16354844D-04  0.12539857D-04  0.62582677D-05 -0.70484540D-04 -0.54043075D-04
 -0.26971282D-04 -0.19694004D-07 -0.15100113D-07 -0.75360148D-08 -0.54201891D-03
 -0.16429545D-04  0.71042960D-04  0.67247559D-08  0.21803205D+00  0.40222656D+00
  0.64931839D+00  0.84521961D+00  0.72122742D+00  0.24902250D+00 -0.37689452D-02
 -0.17371034D-02  0.48710193D-02  0.69238232D-04  0.53087485D-04  0.26494376D-04
 -0.21147389D-04 -0.16214476D-04 -0.80921602D-05  0.21896391D-07  0.16788764D-07
  0.83787699D-08 -0.54182699D-03 -0.69756516D-04  0.21256177D-04 -0.61376211D-08
  0.21799810D+00  0.40216393D+00  0.64921728D+00  0.84508800D+00  0.72111512D+00
  0.24898372D+00 -0.37683107D-02 -0.17368110D-02  0.48701993D-02  0.52908870D-04
  0.40567166D-04  0.20245859D-04  0.49464760D-04  0.37926441D-04  0.18927952D-04
  0.46477670D-08  0.35636130D-08  0.17784926D-08 -0.54161685D-03 -0.53345614D-04
 -0.49787382D-04  0.13348215D-08 -0.33209037D-04 -0.56328813D-04 -0.64128362D-04
  0.21407460D-03 -0.33208351D-04 -0.56327649D-04 -0.64127038D-04  0.21407850D-03
 -0.33215959D-04 -0.56340554D-04 -0.64141729D-04  0.21409773D-03 -0.33219217D-04
 -0.56346080D-04 -0.64148021D-04  0.21412214D-03 -0.33214653D-04 -0.56338337D-04
 -0.64139206D-04  0.21409011D-03 -0.33207676D-04 -0.56326503D-04 -0.64125733D-04
  0.21407899D-03
MO    2     MO 0.0        OCC NO =    2.0000000  ORB. ENERGY =  -11.234506
  0.30726345D+00  0.56684106D+00  0.91505724D+00  0.11911326D+01  0.10163956D+01
  0.35093699D+00 -0.56319823D-02 -0.25957755D-02  0.72788254D-02  0.26799863D-04
  0.20548435D-04  0.10255109D-04 -0.25842716D-03 -0.19814555D-03 -0.98888519D-04
  0.11435110D-07  0.87677172D-08  0.43757054D-08 -0.12261668D-02  0.33440823D-05
  0.93901890D-04 -0.15395626D-08  0.13013104D+00  0.24006636D+00  0.38754155D+00
  0.50446395D+00  0.43046000D+00  0.14862749D+00 -0.23851295D-02 -0.10993040D-02
  0.30825632D-02  0.73178915D-05  0.56108951D-05  0.28002299D-05 -0.34980336D-03
 -0.26820703D-03 -0.13385410D-03 -0.16451466D-07 -0.12613941D-07 -0.62952406D-08
 -0.51882863D-03  0.36959705D-04  0.25197589D-03  0.35655677D-08 -0.17694040D+00
 -0.32642050D+00 -0.52694389D+00 -0.68592438D+00 -0.58530051D+00 -0.20209020D+00
  0.32431704D-02  0.14947743D-02 -0.41915031D-02  0.96285179D-04  0.73825368D-04
  0.36844033D-04 -0.32084297D-03 -0.24600204D-03 -0.12277226D-03  0.23687816D-08
  0.18162315D-08  0.90642682D-09  0.70568167D-03 -0.11707049D-03  0.20180836D-03
 -0.64742669D-09 -0.30720712D+00 -0.56673715D+00 -0.91488948D+00 -0.11909143D+01
 -0.10162093D+01 -0.35087265D+00  0.56309956D-02  0.25953207D-02 -0.72775502D-02
  0.26691173D-04  0.20465099D-04  0.10213518D-04 -0.25846263D-03 -0.19817275D-03
 -0.98902092D-04  0.25403269D-07  0.19477615D-07  0.97206952D-08  0.12259994D-02
  0.32482523D-05  0.93888112D-04 -0.52859525D-08 -0.13021061D+00 -0.24021315D+00
 -0.38777851D+00 -0.50477240D+00 -0.43072320D+00 -0.14871837D+00  0.23867207D-02
  0.11000374D-02 -0.30846197D-02  0.74569953D-05  0.57175510D-05  0.28534587D-05
 -0.34979548D-03 -0.26820099D-03 -0.13385109D-03 -0.72524601D-08 -0.55607264D-08
 -0.27751922D-08  0.51955447D-03  0.36809840D-04  0.25206808D-03  0.12277850D-08
  0.17710806D+00  0.32672978D+00  0.52744318D+00  0.68657430D+00  0.58585509D+00
  0.20228168D+00 -0.32462740D-02 -0.14962047D-02  0.41955142D-02  0.96173292D-04
  0.73739580D-04  0.36801219D-04 -0.32085751D-03 -0.24601318D-03 -0.12277782D-03
 -0.47212483D-09 -0.36199538D-09 -0.18066106D-09 -0.70659993D-03 -0.11701135D-03
  0.20193509D-03 -0.46335927D-09 -0.52827990D-04 -0.89606270D-04 -0.10201357D-03
  0.19211987D-03 -0.22376392D-04 -0.37954597D-04 -0.43209967D-04  0.81401237D-04
  0.30424964D-04  0.51606498D-04  0.58752174D-04 -0.11065320D-03  0.52819746D-04
  0.89592287D-04  0.10199765D-03 -0.19206683D-03  0.22383057D-04  0.37965901D-04
  0.43222836D-04 -0.81426913D-04 -0.30445523D-04 -0.51641370D-04 -0.58791874D-04
  0.11076835D-03
MO    3     MO 0.0        OCC NO =    2.0000000  ORB. ENERGY =  -11.234506
  0.26979869D-01  0.49772591D-01  0.80348394D-01  0.10458974D+00  0.89246611D-01
  0.30814710D-01 -0.49448624D-03 -0.22790825D-03  0.63907853D-03  0.36095469D-03
  0.27675716D-03  0.13812122D-03  0.60223519D-04  0.46175575D-04  0.23044848D-04
 -0.28084854D-08 -0.21533685D-08 -0.10746818D-08 -0.10751106D-03 -0.27134525D-03
 -0.54611783D-04 -0.39665849D-09  0.27959745D+00  0.51580269D+00  0.83266548D+00
  0.10838830D+01  0.92487937D+00  0.31933862D+00 -0.51248589D-02 -0.23620428D-02
  0.66234145D-02  0.26958052D-03  0.20669724D-03  0.10315641D-03  0.79447062D-04
  0.60914968D-04  0.30400838D-04 -0.43675219D-07 -0.33487388D-07 -0.16712553D-07
 -0.11155519D-02 -0.11314184D-03 -0.88102470D-04  0.10365933D-07  0.25260153D+00
  0.46600050D+00  0.75226929D+00  0.97923110D+00  0.83557967D+00  0.28850558D+00
 -0.46301090D-02 -0.21340130D-02  0.59839952D-02  0.29854586D-03  0.22890603D-03
  0.11424015D-03 -0.92138810D-05 -0.70646195D-05 -0.35257403D-05 -0.60980396D-08
 -0.46755900D-08 -0.23334471D-08 -0.10081557D-02 -0.16336594D-03  0.65685009D-04
  0.60745344D-09 -0.27131467D-01 -0.50052259D-01 -0.80799865D-01 -0.10517742D+00
 -0.89748080D-01 -0.30987855D-01  0.49736839D-03  0.22923664D-03 -0.64280346D-03
  0.36098286D-03  0.27677876D-03  0.13813200D-03  0.60087402D-04  0.46071209D-04
  0.22992762D-04 -0.38536155D-08 -0.29547079D-08 -0.14746063D-08  0.10853157D-03
 -0.27143196D-03 -0.54439936D-04  0.16245754D-08 -0.27956756D+00 -0.51574756D+00
 -0.83257648D+00 -0.10837672D+01 -0.92478051D+00 -0.31930449D+00  0.51243058D-02
  0.23617878D-02 -0.66226997D-02  0.26959546D-03  0.20670870D-03  0.10316213D-03
  0.79546547D-04  0.60991247D-04  0.30438907D-04 -0.20876946D-07 -0.16007118D-07
 -0.79886738D-08  0.11154039D-02 -0.11308652D-03 -0.88000227D-04  0.24489421D-08
 -0.25248124D+00 -0.46577860D+00 -0.75191107D+00 -0.97876480D+00 -0.83518178D+00
 -0.28836820D+00  0.46278047D-02  0.21329509D-02 -0.59810171D-02  0.29852020D-03
  0.22888636D-03  0.11423033D-03 -0.93687977D-05 -0.71833999D-05 -0.35850200D-05
 -0.37809995D-08 -0.28990306D-08 -0.14468195D-08  0.10072867D-02 -0.16320008D-03
  0.65748224D-04  0.23002292D-08 -0.46436339D-05 -0.78764821D-05 -0.89670965D-05
  0.16868930D-04 -0.48069638D-04 -0.81535203D-04 -0.92824947D-04  0.17484042D-03
 -0.43426110D-04 -0.73658901D-04 -0.83858056D-04  0.15793675D-03  0.46603662D-05
  0.79048631D-05  0.89994072D-05 -0.16953785D-04  0.48066365D-04  0.81529653D-04
  0.92818628D-04 -0.17481742D-03  0.43412866D-04  0.73636438D-04  0.83832482D-04
 -0.15787628D-03
MO    4     MO 0.0        OCC NO =    2.0000000  ORB. ENERGY =  -11.233278
  0.30555173D+00  0.56368328D+00  0.90995960D+00  0.11844970D+01  0.10107335D+01
  0.34898197D+00 -0.59694135D-02 -0.27512972D-02  0.77149247D-02  0.97351993D-04
  0.74643333D-04  0.37252255D-04 -0.38570545D-03 -0.29573447D-03 -0.14759223D-03
  0.12932798D-07  0.99160490D-08  0.49488034D-08 -0.25771681D-02 -0.15551369D-03
  0.49106538D-03 -0.80446091D-09 -0.11574963D+00 -0.21353546D+00 -0.34471244D+00
 -0.44871317D+00 -0.38288776D+00 -0.13220194D+00  0.22613601D-02  0.10422588D-02
 -0.29226025D-02 -0.15923869D-03 -0.12209413D-03 -0.60933526D-04 -0.56585323D-05
 -0.43386037D-05 -0.21652673D-05  0.17974413D-07  0.13781640D-07  0.68780042D-08
  0.97625059D-03  0.26578485D-03  0.20440692D-03 -0.50635210D-08 -0.18971311D+00
 -0.34998364D+00 -0.56498212D+00 -0.73543884D+00 -0.62755130D+00 -0.21667838D+00
  0.37064136D-02  0.17082826D-02 -0.47902028D-02 -0.21062189D-03 -0.16149151D-03
 -0.80595580D-04 -0.13621870D-03 -0.10444386D-03 -0.52124807D-04  0.12066601D-08
  0.92519044D-09  0.46173487D-09  0.16006087D-02  0.39175448D-03  0.47798470D-04
 -0.11513675D-08  0.30557355D+00  0.56372353D+00  0.91002456D+00  0.11845816D+01
  0.10108056D+01  0.34900689D+00 -0.59699358D-02 -0.27515380D-02  0.77155997D-02
 -0.96958549D-04 -0.74341666D-04 -0.37101701D-04  0.38584218D-03  0.29583931D-03
  0.14764455D-03 -0.21273134D-07 -0.16310890D-07 -0.81402772D-08 -0.25779300D-02
  0.15531548D-03 -0.49141169D-03  0.29305821D-08 -0.11594401D+00 -0.21389407D+00
 -0.34529134D+00 -0.44946673D+00 -0.38353078D+00 -0.13242396D+00  0.22650974D-02
  0.10439813D-02 -0.29274326D-02  0.15953779D-03  0.12232346D-03  0.61047980D-04
  0.57273653D-05  0.43913804D-05  0.21916066D-05 -0.11054345D-07 -0.84757702D-08
 -0.42300034D-08  0.97799435D-03 -0.26619888D-03 -0.20438465D-03  0.26179262D-08
 -0.18978779D+00 -0.35012142D+00 -0.56520453D+00 -0.73572836D+00 -0.62779834D+00
 -0.21676368D+00  0.37076904D-02  0.17088711D-02 -0.47918530D-02  0.21086053D-03
  0.16167448D-03  0.80686897D-04  0.13608434D-03  0.10434084D-03  0.52073394D-04
 -0.48814719D-08 -0.37428031D-08 -0.18679210D-08  0.16004087D-02 -0.39170459D-03
 -0.47517301D-04  0.44486976D-08 -0.34417125D-04 -0.58377957D-04 -0.66461241D-04
  0.11441351D-03  0.13033585D-04  0.22107427D-04  0.25168524D-04 -0.43358321D-04
  0.21371378D-04  0.36249902D-04  0.41269233D-04 -0.70994831D-04 -0.34423579D-04
 -0.58388905D-04 -0.66473704D-04  0.11436277D-03  0.13067756D-04  0.22165388D-04
  0.25234511D-04 -0.43390673D-04  0.21380395D-04  0.36265196D-04  0.41286644D-04
 -0.71090502D-04
MO    5     MO 0.0        OCC NO =    2.0000000  ORB. ENERGY =  -11.233278
 -0.42590856D-01 -0.78571813D-01 -0.12683927D+00 -0.16510704D+00 -0.14088614D+00
 -0.48644597D-01  0.83215134D-03  0.38353779D-03 -0.10754800D-02  0.41642196D-04
  0.31928595D-04  0.15934606D-04  0.66534443D-04  0.51014390D-04  0.25459756D-04
 -0.82030697D-08 -0.62895935D-08 -0.31389480D-08  0.35946957D-03 -0.26825435D-03
 -0.13557979D-03  0.42342520D-08  0.28601648D+00  0.52764455D+00  0.85178191D+00
  0.11087670D+01  0.94611285D+00  0.32667003D+00 -0.55877392D-02 -0.25753839D-02
  0.72216452D-02  0.34985015D-03  0.26824291D-03  0.13387201D-03 -0.12904735D-03
 -0.98945324D-04 -0.49380651D-04 -0.40729936D-07 -0.31229131D-07 -0.15585525D-07
 -0.24124422D-02 -0.42738002D-03  0.24632289D-03  0.97299167D-08 -0.24332413D+00
 -0.44888550D+00 -0.72464038D+00 -0.94326647D+00 -0.80489099D+00 -0.27790951D+00
  0.47537124D-02  0.21909817D-02 -0.61437414D-02 -0.20791447D-03 -0.15941563D-03
 -0.79559573D-04 -0.24144752D-03 -0.18512665D-03 -0.92391171D-04 -0.29741592D-08
 -0.22803966D-08 -0.11380777D-08  0.20524719D-02  0.17527532D-03  0.41161331D-03
  0.13927182D-08 -0.42737372D-01 -0.78842106D-01 -0.12727560D+00 -0.16567502D+00
 -0.14137080D+00 -0.48811938D-01  0.83488872D-03  0.38479945D-03 -0.10790178D-02
 -0.41607810D-04 -0.31902229D-04 -0.15921448D-04 -0.66727283D-04 -0.51162248D-04
 -0.25533548D-04  0.51276432D-08  0.39315516D-08  0.19621198D-08  0.36035241D-03
  0.26823158D-03  0.13568683D-03 -0.21072052D-08  0.28593018D+00  0.52748535D+00
  0.85152490D+00  0.11084324D+01  0.94582739D+00  0.32657147D+00 -0.55861433D-02
 -0.25746483D-02  0.72195827D-02 -0.34986068D-03 -0.26825098D-03 -0.13387604D-03
  0.12868100D-03  0.98664429D-04  0.49240465D-04  0.17791970D-07  0.13641754D-07
  0.68081912D-08 -0.24120220D-02  0.42741330D-03 -0.24609509D-03 -0.29061739D-09
 -0.24326926D+00 -0.44878428D+00 -0.72447698D+00 -0.94305376D+00 -0.80470948D+00
 -0.27784685D+00  0.47526840D-02  0.21905077D-02 -0.61424122D-02  0.20808229D-03
  0.15954430D-03  0.79623789D-04  0.24113641D-03  0.18488810D-03  0.92272121D-04
 -0.50337865D-08 -0.38595882D-08 -0.19262050D-08  0.20521131D-02 -0.17540053D-03
 -0.41142207D-03  0.46678467D-08  0.47937287D-05  0.81310711D-05  0.92569371D-05
 -0.15937598D-04 -0.32221197D-04 -0.54653248D-04 -0.62220792D-04  0.10708669D-03
  0.27410069D-04  0.46492664D-04  0.52930255D-04 -0.91094373D-04  0.48172445D-05
  0.81709584D-05  0.93023473D-05 -0.16003198D-04 -0.32207058D-04 -0.54629266D-04
 -0.62193488D-04  0.10703862D-03  0.27401922D-04  0.46478845D-04  0.52914523D-04
 -0.91072199D-04
MO    6     MO 0.0        OCC NO =    2.0000000  ORB. ENERGY =  -11.232687
 -0.21826114D+00 -0.40264918D+00 -0.65000063D+00 -0.84610769D+00 -0.72198522D+00
 -0.24928415D+00  0.46077493D-02  0.21237074D-02 -0.59550974D-02 -0.79739485D-04
 -0.61139180D-04 -0.30512736D-04  0.34450447D-03  0.26414417D-03  0.13182646D-03
 -0.12482245D-07 -0.95705937D-08 -0.47763970D-08  0.41986052D-02  0.32388696D-03
 -0.14001067D-02  0.96658992D-08  0.21828157D+00  0.40268687D+00  0.65006147D+00
  0.84618689D+00  0.72205280D+00  0.24930748D+00 -0.46081017D-02 -0.21238699D-02
  0.59555528D-02  0.33817045D-03  0.25928765D-03  0.12940271D-03 -0.10337614D-03
 -0.79262271D-04 -0.39557428D-04 -0.80135312D-08 -0.61442674D-08 -0.30664201D-08
 -0.41986170D-02 -0.13743755D-02  0.41985054D-03 -0.17335757D-08 -0.21823317D+00
 -0.40259758D+00 -0.64991733D+00 -0.84599925D+00 -0.72189270D+00 -0.24925220D+00
  0.46071750D-02  0.21234427D-02 -0.59543551D-02 -0.25841811D-03 -0.19813862D-03
 -0.98885057D-04 -0.24130837D-03 -0.18501995D-03 -0.92337923D-04 -0.14178622D-07
 -0.10871268D-07 -0.54255248D-08  0.41982628D-02  0.10504853D-02  0.98054558D-03
  0.19089485D-07  0.21820101D+00  0.40253825D+00  0.64982155D+00  0.84587458D+00
  0.72178631D+00  0.24921547D+00 -0.46065585D-02 -0.21231586D-02  0.59535583D-02
 -0.79541404D-04 -0.60987304D-04 -0.30436939D-04  0.34445846D-03  0.26410890D-03
  0.13180885D-03 -0.42355382D-08 -0.32475420D-08 -0.16207511D-08 -0.41980546D-02
  0.32353247D-03 -0.14000694D-02 -0.90415257D-08 -0.21824794D+00 -0.40262483D+00
 -0.64996131D+00 -0.84605651D+00 -0.72194155D+00 -0.24926907D+00  0.46074578D-02
  0.21235731D-02 -0.59547206D-02  0.33818888D-03  0.25930178D-03  0.12940976D-03
 -0.10320353D-03 -0.79129924D-04 -0.39491378D-04 -0.10546126D-07 -0.80861005D-08
 -0.40355309D-08  0.41983687D-02 -0.13744124D-02  0.41957777D-03  0.14632842D-08
  0.21827847D+00  0.40268115D+00  0.65005224D+00  0.84617487D+00  0.72204255D+00
  0.24930394D+00 -0.46080474D-02 -0.21238448D-02  0.59554826D-02 -0.25858384D-03
 -0.19826569D-03 -0.98948473D-04 -0.24120160D-03 -0.18493809D-03 -0.92297066D-04
  0.17243607D-10  0.13221304D-10  0.65983573D-11 -0.41986119D-02  0.10507936D-02
  0.98031004D-03 -0.17206990D-07  0.49631847D-04  0.84185006D-04  0.95841654D-04
  0.17980192D-03 -0.49637692D-04 -0.84194921D-04 -0.95852942D-04 -0.17978993D-03
  0.49631049D-04  0.84183653D-04  0.95840114D-04  0.17980977D-03 -0.49625209D-04
 -0.84173746D-04 -0.95828835D-04 -0.17981970D-03  0.49633667D-04  0.84188094D-04
  0.95845169D-04  0.17980607D-03 -0.49636397D-04 -0.84192725D-04 -0.95850441D-04
 -0.17978942D-03
MO    7     MO 0.0        OCC NO =    2.0000000  ORB. ENERGY =   -1.155334
 -0.49811700D-01 -0.91892860D-01 -0.14834357D+00 -0.19309925D+00 -0.16477194D+00
 -0.56891791D-01 -0.72911286D-01 -0.33604745D-01  0.94231213D-01  0.18378076D-01
  0.14091143D-01  0.70324681D-02 -0.79420693D-01 -0.60894750D-01 -0.30390748D-01
 -0.74040062D-07 -0.56769223D-07 -0.28331821D-07  0.20241660D-01  0.27033883D-03
 -0.11700361D-02  0.30675105D-08 -0.49811971D-01 -0.91893360D-01 -0.14834438D+00
 -0.19310030D+00 -0.16477284D+00 -0.56892101D-01 -0.72911811D-01 -0.33604987D-01
  0.94231891D-01  0.77961696D-01  0.59776084D-01  0.29832455D-01 -0.23823899D-01
 -0.18266655D-01 -0.91163410D-02 -0.28429424D-05 -0.21797879D-05 -0.10878669D-05
  0.20241467D-01  0.11482091D-02 -0.35043609D-03 -0.87808189D-07 -0.49811754D-01
 -0.91892960D-01 -0.14834373D+00 -0.19309946D+00 -0.16477212D+00 -0.56891853D-01
 -0.72911425D-01 -0.33604809D-01  0.94231393D-01  0.59589787D-01  0.45689669D-01
  0.22802347D-01  0.55628711D-01  0.42652567D-01  0.21286620D-01 -0.10606041D-05
 -0.81320394D-06 -0.40584576D-06  0.20241518D-01  0.87796000D-03  0.81900560D-03
 -0.35853155D-07 -0.49811579D-01 -0.91892636D-01 -0.14834321D+00 -0.19309878D+00
 -0.16477154D+00 -0.56891652D-01 -0.72911102D-01 -0.33604660D-01  0.94230975D-01
 -0.18348455D-01 -0.14068432D-01 -0.70211334D-02  0.79427435D-01  0.60899919D-01
  0.30393328D-01 -0.10733281D-05 -0.82295993D-06 -0.41071468D-06  0.20241657D-01
 -0.27071241D-03  0.11699734D-02 -0.39616589D-07 -0.49811919D-01 -0.91893264D-01
 -0.14834422D+00 -0.19310010D+00 -0.16477266D+00 -0.56892041D-01 -0.72911741D-01
 -0.33604955D-01  0.94231801D-01 -0.77970541D-01 -0.59782865D-01 -0.29835840D-01
  0.23795099D-01  0.18244573D-01  0.91053204D-02  0.49799492D-06  0.38183091D-06
  0.19056039D-06  0.20241420D-01 -0.11480741D-02  0.35079471D-03  0.27914833D-07
 -0.49811848D-01 -0.91893133D-01 -0.14834401D+00 -0.19309982D+00 -0.16477243D+00
 -0.56891960D-01 -0.72911557D-01 -0.33604870D-01  0.94231563D-01 -0.59610595D-01
 -0.45705624D-01 -0.22810309D-01 -0.55606406D-01 -0.42635465D-01 -0.21278085D-01
  0.12116131D-05  0.92898805D-06  0.46363015D-06  0.20241579D-01 -0.87772272D-03
 -0.81929470D-03  0.23507845D-07  0.77875544D-02  0.13209166D-01  0.15038169D-01
  0.84745360D-03  0.77875476D-02  0.13209155D-01  0.15038156D-01  0.84726383D-03
  0.77875183D-02  0.13209105D-01  0.15038099D-01  0.84734898D-03  0.77875252D-02
  0.13209117D-01  0.15038112D-01  0.84745937D-03  0.77875196D-02  0.13209107D-01
  0.15038102D-01  0.84725121D-03  0.77875551D-02  0.13209167D-01  0.15038170D-01
  0.84736198D-03
MO    8     MO 0.0        OCC NO =    2.0000000  ORB. ENERGY =   -1.016765
 -0.16994836D-01 -0.31352154D-01 -0.50612097D-01 -0.65881912D-01 -0.56217155D-01
 -0.19410433D-01 -0.25429739D-01 -0.11720544D-01  0.32865628D-01 -0.13944033D+00
 -0.10691400D+00 -0.53357580D-01 -0.42794580D-01 -0.32812170D-01 -0.16375572D-01
  0.64898094D-06  0.49759742D-06  0.24833599D-06  0.88885335D-02 -0.14315918D-02
 -0.20753326D-03  0.23829285D-07 -0.66710380D-01 -0.12306763D+00 -0.19866931D+00
 -0.25860841D+00 -0.22067102D+00 -0.76192401D-01 -0.99821151D-01 -0.46007477D-01
  0.12900977D+00  0.26660665D-01  0.20441707D-01  0.10201844D-01 -0.50922561D-01
 -0.39044190D-01 -0.19485787D-01 -0.49521050D-05 -0.37969600D-05 -0.18949491D-05
  0.34885492D-01 -0.57621869D-03 -0.24735553D-03 -0.19949584D-06 -0.49711786D-01
 -0.91708538D-01 -0.14804602D+00 -0.19271192D+00 -0.16444143D+00 -0.56777675D-01
 -0.74385619D-01 -0.34284264D-01  0.96136655D-01 -0.49405971D-01 -0.37881365D-01
 -0.18905456D-01  0.97042442D-01  0.74405989D-01  0.37133803D-01 -0.13772490D-05
 -0.10559872D-05 -0.52701161D-06  0.25995824D-01 -0.96850120D-03  0.51385370D-03
 -0.72979386D-07  0.17008456D-01  0.31377280D-01  0.50652658D-01  0.65934711D-01
  0.56262208D-01  0.19425988D-01  0.25450550D-01  0.11730135D-01 -0.32892523D-01
 -0.13945570D+00 -0.10692579D+00 -0.53363461D-01 -0.42810396D-01 -0.32824297D-01
 -0.16381625D-01  0.57102452D-06  0.43782538D-06  0.21850555D-06 -0.88934594D-02
 -0.14322206D-02 -0.20447774D-03  0.39865684D-07  0.66706498D-01  0.12306046D+00
  0.19865775D+00  0.25859336D+00  0.22065818D+00  0.76187967D-01  0.99815222D-01
  0.46004745D-01 -0.12900211D+00  0.26679280D-01  0.20455980D-01  0.10208967D-01
 -0.50851137D-01 -0.38989426D-01 -0.19458456D-01 -0.10869376D-05 -0.83339483D-06
 -0.41592243D-06 -0.34884090D-01 -0.57545882D-03 -0.24785804D-03 -0.58754941D-07
  0.49702062D-01  0.91690599D-01  0.14801706D+00  0.19267423D+00  0.16440927D+00
  0.56766569D-01  0.74370759D-01  0.34277415D-01 -0.96117450D-01 -0.49374836D-01
 -0.37857492D-01 -0.18893542D-01  0.96996211D-01  0.74370542D-01  0.37116113D-01
 -0.90956309D-06 -0.69739529D-06 -0.34804913D-06 -0.25992309D-01 -0.96699429D-03
  0.51553252D-03 -0.22214963D-07  0.41238239D-02  0.69947859D-02  0.79633165D-02
  0.70043588D-03  0.16184941D-01  0.27452724D-01  0.31253956D-01  0.27455543D-02
  0.12060512D-01  0.20456912D-01  0.23289471D-01  0.20455255D-02 -0.41259433D-02
 -0.69983808D-02 -0.79674092D-02 -0.69919017D-03 -0.16184287D-01 -0.27451614D-01
 -0.31252692D-01 -0.27458916D-02 -0.12059038D-01 -0.20454411D-01 -0.23286624D-01
 -0.20464332D-02
MO    9     MO 0.0        OCC NO =    2.0000000  ORB. ENERGY =   -1.016762
 -0.67214077D-01 -0.12399685D+00 -0.20016936D+00 -0.26056103D+00 -0.22233720D+00
 -0.76767691D-01 -0.10057488D+00 -0.46354871D-01  0.12998390D+00  0.45058096D-01
  0.34547690D-01  0.17241719D-01 -0.31326966D-01 -0.24019530D-01 -0.11987429D-01
 -0.26015828D-06 -0.19947287D-06 -0.99550941D-07  0.35149214D-01  0.24650362D-03
  0.55209215D-03 -0.11622479D-07 -0.18875511D-01 -0.34821631D-01 -0.56212910D-01
 -0.73172507D-01 -0.62438232D-01 -0.21558421D-01 -0.28243902D-01 -0.13017588D-01
  0.36502677D-01  0.53096929D-01  0.40711358D-01  0.20317821D-01  0.13477418D+00
  0.10333629D+00  0.51572053D-01 -0.14107423D-05 -0.10816677D-05 -0.53982801D-06
  0.98719659D-02  0.28984130D-03  0.14075505D-02 -0.65981894D-07  0.48324870D-01
  0.89149949D-01  0.14391566D+00  0.18733543D+00  0.15985366D+00  0.55193627D-01
  0.72310081D-01  0.33327650D-01 -0.93454211D-01 -0.94775277D-01 -0.72667671D-01
 -0.36266261D-01  0.58706244D-01  0.45012225D-01  0.22464255D-01  0.17635044D-05
  0.13521433D-05  0.67481427D-06 -0.25272176D-01 -0.47485138D-03  0.10152408D-02
  0.86712227D-07  0.67210677D-01  0.12399058D+00  0.20015923D+00  0.26054785D+00
  0.22232595D+00  0.76763809D-01  0.10056968D+00  0.46352475D-01 -0.12997718D+00
  0.44984858D-01  0.34491536D-01  0.17213694D-01 -0.31341060D-01 -0.24030337D-01
 -0.11992822D-01  0.23007583D-05  0.17640755D-05  0.88039733D-06 -0.35148006D-01
  0.24694248D-03  0.55136719D-03  0.96678759D-07  0.18889146D-01  0.34846786D-01
  0.56253517D-01  0.73225364D-01  0.62483336D-01  0.21573994D-01  0.28264733D-01
  0.13027189D-01 -0.36529599D-01  0.53114403D-01  0.40724756D-01  0.20324507D-01
  0.13479062D+00  0.10334890D+00  0.51578345D-01 -0.71138563D-06 -0.54544538D-06
 -0.27221547D-06 -0.98769154D-02  0.28685324D-03  0.14083856D-02 -0.31824062D-07
 -0.48334887D-01 -0.89168428D-01 -0.14394549D+00 -0.18737426D+00 -0.15988680D+00
 -0.55205068D-01 -0.72325390D-01 -0.33334706D-01  0.93473995D-01 -0.94818134D-01
 -0.72700531D-01 -0.36282660D-01  0.58739699D-01  0.45037875D-01  0.22477056D-01
  0.85678198D-06  0.65692608D-06  0.32785215D-06  0.25275779D-01 -0.47303127D-03
  0.10166769D-02  0.29539387D-07  0.16307424D-01  0.27660478D-01  0.31490477D-01
  0.27664528D-02  0.45801450D-02  0.77687928D-02  0.88444961D-02  0.77783173D-03
 -0.11725033D-01 -0.19887875D-01 -0.22641643D-01 -0.19898005D-02 -0.16306874D-01
 -0.27659545D-01 -0.31489414D-01 -0.27667728D-02 -0.45822820D-02 -0.77724175D-02
 -0.88486226D-02 -0.77660092D-03  0.11726622D-01  0.19890570D-01  0.22644711D-01
  0.19888805D-02
MO   10     MO 0.0        OCC NO =    2.0000000  ORB. ENERGY =   -0.823794
 -0.53782352D-01 -0.99217938D-01 -0.16016852D+00 -0.20849182D+00 -0.17790645D+00
 -0.61426820D-01 -0.81908245D-01 -0.37751435D-01  0.10585896D+00 -0.47802546D-01
 -0.36651960D-01 -0.18291897D-01  0.70815662D-01  0.54296958D-01  0.27097988D-01
  0.80392228D-06  0.61639661D-06  0.30762511D-06  0.33621877D-01 -0.23508898D-02
  0.66924627D-02 -0.15660222D-07  0.21595664D-01  0.39839782D-01  0.64313762D-01
  0.83717408D-01  0.71436216D-01  0.24665209D-01  0.32889495D-01  0.15158738D-01
 -0.42506685D-01  0.10324060D+00  0.79158343D-01  0.39505561D-01  0.22844704D+00
  0.17515870D+00  0.87416467D-01  0.29507382D-05  0.22624389D-05  0.11291156D-05
 -0.13500510D-01  0.45604805D-02  0.52396839D-02  0.14245000D-06  0.32177844D-01
  0.59361838D-01  0.95828413D-01  0.12474012D+00  0.10644097D+00  0.36751509D-01
  0.49005722D-01  0.22586693D-01 -0.63335444D-01  0.18363388D+00  0.14079881D+00
  0.70268475D-01 -0.12685383D+00 -0.97263473D-01 -0.48541290D-01  0.14292842D-05
  0.10958844D-05  0.54692314D-06 -0.20115900D-01  0.68788390D-02 -0.11884323D-02
  0.16108446D-06 -0.53781249D-01 -0.99215902D-01 -0.16016523D+00 -0.20848754D+00
 -0.17790280D+00 -0.61425560D-01 -0.81906615D-01 -0.37750684D-01  0.10585686D+00
  0.47774081D-01  0.36630135D-01  0.18281005D-01 -0.70818178D-01 -0.54298887D-01
 -0.27098950D-01 -0.40321420D-05 -0.30915907D-05 -0.15429204D-05  0.33621205D-01
  0.23471452D-02 -0.66932892D-02 -0.25535017D-06  0.21604284D-01  0.39855686D-01
  0.64339435D-01  0.83750827D-01  0.71464733D-01  0.24675055D-01  0.32902261D-01
  0.15164622D-01 -0.42523183D-01 -0.10327241D+00 -0.79182733D-01 -0.39517733D-01