 Title Card Required
GAUSSIAN             21 MOL ORBITALS    156 PRIMITIVES       12 NUCLEI
  C    1    (CENTRE  1)  -0.59104605  2.55648703  0.00000381  CHARGE =  6.0
  C    2    (CENTRE  2)  -2.50955664  0.76627453  0.00003046  CHARGE =  6.0
  C    3    (CENTRE  3)  -1.91847526 -1.79010004  0.00001471  CHARGE =  6.0
  C    4    (CENTRE  4)   0.59116216 -2.55646024  0.00000947  CHARGE =  6.0
  C    5    (CENTRE  5)   2.50952236 -0.76638747 -0.00000251  CHARGE =  6.0
  C    6    (CENTRE  6)   1.91839335  1.79018735 -0.00001778  CHARGE =  6.0
  H    7    (CENTRE  7)  -1.04799130  4.53230565  0.00000322  CHARGE =  1.0
  H    8    (CENTRE  8)  -4.44908148  1.35865235 -0.00011108  CHARGE =  1.0
  H    9    (CENTRE  9)  -3.40110623 -3.17374692 -0.00007730  CHARGE =  1.0
  H   10    (CENTRE 10)   1.04789595 -4.53232894 -0.00007693  CHARGE =  1.0
  H   11    (CENTRE 11)   4.44911165 -1.35856164  0.00006148  CHARGE =  1.0
  H   12    (CENTRE 12)   3.40117188  3.17367255 -0.00002832  CHARGE =  1.0
CENTRE ASSIGNMENTS    1  1  1  1  1  1  1  1  1  1  1  1  1  1  1  1  1  1  1  1
CENTRE ASSIGNMENTS    1  1  2  2  2  2  2  2  2  2  2  2  2  2  2  2  2  2  2  2
CENTRE ASSIGNMENTS    2  2  2  2  3  3  3  3  3  3  3  3  3  3  3  3  3  3  3  3
CENTRE ASSIGNMENTS    3  3  3  3  3  3  4  4  4  4  4  4  4  4  4  4  4  4  4  4
CENTRE ASSIGNMENTS    4  4  4  4  4  4  4  4  5  5  5  5  5  5  5  5  5  5  5  5
CENTRE ASSIGNMENTS    5  5  5  5  5  5  5  5  5  5  6  6  6  6  6  6  6  6  6  6
CENTRE ASSIGNMENTS    6  6  6  6  6  6  6  6  6  6  6  6  7  7  7  7  8  8  8  8
CENTRE ASSIGNMENTS    9  9  9  9 10 10 10 10 11 11 11 11 12 12 12 12
TYPE ASSIGNMENTS      1  1  1  1  1  1  1  1  1  2  2  2  3  3  3  4  4  4  1  2
TYPE ASSIGNMENTS      3  4  1  1  1  1  1  1  1  1  1  2  2  2  3  3  3  4  4  4
TYPE ASSIGNMENTS      1  2  3  4  1  1  1  1  1  1  1  1  1  2  2  2  3  3  3  4
TYPE ASSIGNMENTS      4  4  1  2  3  4  1  1  1  1  1  1  1  1  1  2  2  2  3  3
TYPE ASSIGNMENTS      3  4  4  4  1  2  3  4  1  1  1  1  1  1  1  1  1  2  2  2
TYPE ASSIGNMENTS      3  3  3  4  4  4  1  2  3  4  1  1  1  1  1  1  1  1  1  2
TYPE ASSIGNMENTS      2  2  3  3  3  4  4  4  1  2  3  4  1  1  1  1  1  1  1  1
TYPE ASSIGNMENTS      1  1  1  1  1  1  1  1  1  1  1  1  1  1  1  1
EXPONENTS  0.3047525D+04 0.4573695D+03 0.1039487D+03 0.2921016D+02 0.9286663D+01
EXPONENTS  0.3163927D+01 0.7868272D+01 0.1881289D+01 0.5442493D+00 0.7868272D+01
EXPONENTS  0.1881289D+01 0.5442493D+00 0.7868272D+01 0.1881289D+01 0.5442493D+00
EXPONENTS  0.7868272D+01 0.1881289D+01 0.5442493D+00 0.1687145D+00 0.1687145D+00
EXPONENTS  0.1687145D+00 0.1687145D+00 0.3047525D+04 0.4573695D+03 0.1039487D+03
EXPONENTS  0.2921016D+02 0.9286663D+01 0.3163927D+01 0.7868272D+01 0.1881289D+01
EXPONENTS  0.5442493D+00 0.7868272D+01 0.1881289D+01 0.5442493D+00 0.7868272D+01
EXPONENTS  0.1881289D+01 0.5442493D+00 0.7868272D+01 0.1881289D+01 0.5442493D+00
EXPONENTS  0.1687145D+00 0.1687145D+00 0.1687145D+00 0.1687145D+00 0.3047525D+04
EXPONENTS  0.4573695D+03 0.1039487D+03 0.2921016D+02 0.9286663D+01 0.3163927D+01
EXPONENTS  0.7868272D+01 0.1881289D+01 0.5442493D+00 0.7868272D+01 0.1881289D+01
EXPONENTS  0.5442493D+00 0.7868272D+01 0.1881289D+01 0.5442493D+00 0.7868272D+01
EXPONENTS  0.1881289D+01 0.5442493D+00 0.1687145D+00 0.1687145D+00 0.1687145D+00
EXPONENTS  0.1687145D+00 0.3047525D+04 0.4573695D+03 0.1039487D+03 0.2921016D+02
EXPONENTS  0.9286663D+01 0.3163927D+01 0.7868272D+01 0.1881289D+01 0.5442493D+00
EXPONENTS  0.7868272D+01 0.1881289D+01 0.5442493D+00 0.7868272D+01 0.1881289D+01
EXPONENTS  0.5442493D+00 0.7868272D+01 0.1881289D+01 0.5442493D+00 0.1687145D+00
EXPONENTS  0.1687145D+00 0.1687145D+00 0.1687145D+00 0.3047525D+04 0.4573695D+03
EXPONENTS  0.1039487D+03 0.2921016D+02 0.9286663D+01 0.3163927D+01 0.7868272D+01
EXPONENTS  0.1881289D+01 0.5442493D+00 0.7868272D+01 0.1881289D+01 0.5442493D+00
EXPONENTS  0.7868272D+01 0.1881289D+01 0.5442493D+00 0.7868272D+01 0.1881289D+01
EXPONENTS  0.5442493D+00 0.1687145D+00 0.1687145D+00 0.1687145D+00 0.1687145D+00
EXPONENTS  0.3047525D+04 0.4573695D+03 0.1039487D+03 0.2921016D+02 0.9286663D+01
EXPONENTS  0.3163927D+01 0.7868272D+01 0.1881289D+01 0.5442493D+00 0.7868272D+01
EXPONENTS  0.1881289D+01 0.5442493D+00 0.7868272D+01 0.1881289D+01 0.5442493D+00
EXPONENTS  0.7868272D+01 0.1881289D+01 0.5442493D+00 0.1687145D+00 0.1687145D+00
EXPONENTS  0.1687145D+00 0.1687145D+00 0.1873114D+02 0.2825394D+01 0.6401217D+00
EXPONENTS  0.1612778D+00 0.1873114D+02 0.2825394D+01 0.6401217D+00 0.1612778D+00
EXPONENTS  0.1873114D+02 0.2825394D+01 0.6401217D+00 0.1612778D+00 0.1873114D+02
EXPONENTS  0.2825394D+01 0.6401217D+00 0.1612778D+00 0.1873114D+02 0.2825394D+01
EXPONENTS  0.6401217D+00 0.1612778D+00 0.1873114D+02 0.2825394D+01 0.6401217D+00
EXPONENTS  0.1612778D+00
MO    1     MO 0.0        OCC NO =    2.0000000  ORB. ENERGY =  -11.235068
  0.21801270D+00  0.40219086D+00  0.64926075D+00  0.84514459D+00  0.72116341D+00
  0.24900039D+00 -0.37686208D-02 -0.17369539D-02  0.48706000D-02 -0.16264028D-04
 -0.12470225D-04 -0.62235162D-05  0.70553107D-04  0.54095648D-04  0.26997519D-04
  0.99568789D-08  0.76343032D-08  0.38100523D-08 -0.54187106D-03  0.16423774D-04
 -0.71021633D-04 -0.36092574D-08  0.21799765D+00  0.40216311D+00  0.64921595D+00
  0.84508626D+00  0.72111364D+00  0.24898321D+00 -0.37682980D-02 -0.17368051D-02
  0.48701828D-02 -0.69277893D-04 -0.53117895D-04 -0.26509552D-04  0.21135284D-04
  0.16205195D-04  0.80875281D-05 -0.38245948D-07 -0.29324567D-07 -0.14635014D-07
 -0.54159359D-03  0.69787183D-04 -0.21328984D-04  0.10892552D-07  0.21804402D+00
  0.40224864D+00  0.64935402D+00  0.84526600D+00  0.72126701D+00  0.24903616D+00
 -0.37691687D-02 -0.17372064D-02  0.48713081D-02 -0.52986934D-04 -0.40627020D-04
 -0.20275730D-04 -0.49316906D-04 -0.37813076D-04 -0.18871375D-04 -0.83194089D-08
 -0.63787951D-08 -0.31834658D-08 -0.54189603D-03  0.53336529D-04  0.49718017D-04
  0.35999586D-09  0.21807421D+00  0.40230433D+00  0.64944393D+00  0.84538303D+00
  0.72136687D+00  0.24907064D+00 -0.37697296D-02 -0.17374649D-02  0.48720331D-02
  0.16354844D-04  0.12539857D-04  0.62582676D-05 -0.70484540D-04 -0.54043075D-04
 -0.26971282D-04 -0.19693990D-07 -0.15100102D-07 -0.75360094D-08 -0.54201891D-03
 -0.16429545D-04  0.71042960D-04  0.67247505D-08  0.21803205D+00  0.40222656D+00
  0.64931839D+00  0.84521961D+00  0.72122742D+00  0.24902250D+00 -0.37689452D-02
 -0.17371034D-02  0.48710193D-02  0.69238232D-04  0.53087485D-04  0.26494375D-04
 -0.21147389D-04 -0.16214477D-04 -0.80921602D-05  0.21896386D-07  0.16788760D-07
  0.83787679D-08 -0.54182699D-03 -0.69756516D-04  0.21256177D-04 -0.61376181D-08
  0.21799810D+00  0.40216393D+00  0.64921728D+00  0.84508800D+00  0.72111512D+00
  0.24898372D+00 -0.37683107D-02 -0.17368110D-02  0.48701993D-02  0.52908870D-04
  0.40567166D-04  0.20245859D-04  0.49464760D-04  0.37926440D-04  0.18927952D-04
  0.46477824D-08  0.35636247D-08  0.17784985D-08 -0.54161685D-03 -0.53345614D-04
 -0.49787382D-04  0.13348164D-08 -0.33209037D-04 -0.56328813D-04 -0.64128362D-04
  0.21407460D-03 -0.33208351D-04 -0.56327649D-04 -0.64127038D-04  0.21407850D-03
 -0.33215959D-04 -0.56340554D-04 -0.64141729D-04  0.21409773D-03 -0.33219217D-04
 -0.56346080D-04 -0.64148021D-04  0.21412214D-03 -0.33214653D-04 -0.56338337D-04
 -0.64139206D-04  0.21409011D-03 -0.33207676D-04 -0.56326503D-04 -0.64125733D-04
  0.21407899D-03
MO    2     MO 0.0        OCC NO =    2.0000000  ORB. ENERGY =  -11.234506
  0.30726345D+00  0.56684106D+00  0.91505723D+00  0.11911326D+01  0.10163956D+01
  0.35093698D+00 -0.56319822D-02 -0.25957755D-02  0.72788253D-02  0.26799832D-04
  0.20548411D-04  0.10255097D-04 -0.25842716D-03 -0.19814556D-03 -0.98888520D-04
  0.11435101D-07  0.87677104D-08  0.43757020D-08 -0.12261668D-02  0.33441053D-05
  0.93901894D-04 -0.15395609D-08  0.13013102D+00  0.24006632D+00  0.38754148D+00
  0.50446386D+00  0.43045992D+00  0.14862747D+00 -0.23851291D-02 -0.10993038D-02
  0.30825626D-02  0.73178680D-05  0.56108770D-05  0.28002209D-05 -0.34980336D-03
 -0.26820703D-03 -0.13385411D-03 -0.16451459D-07 -0.12613935D-07 -0.62952376D-08
 -0.51882854D-03  0.36959715D-04  0.25197589D-03  0.35655665D-08 -0.17694043D+00
 -0.32642054D+00 -0.52694395D+00 -0.68592446D+00 -0.58530058D+00 -0.20209023D+00
  0.32431708D-02  0.14947745D-02 -0.41915036D-02  0.96285153D-04  0.73825349D-04
  0.36844023D-04 -0.32084297D-03 -0.24600204D-03 -0.12277226D-03  0.23687920D-08
  0.18162395D-08  0.90643079D-09  0.70568175D-03 -0.11707047D-03  0.20180836D-03
 -0.64742909D-09 -0.30720712D+00 -0.56673714D+00 -0.91488947D+00 -0.11909143D+01
 -0.10162093D+01 -0.35087265D+00  0.56309955D-02  0.25953207D-02 -0.72775501D-02
  0.26691142D-04  0.20465075D-04  0.10213507D-04 -0.25846263D-03 -0.19817275D-03
 -0.98902093D-04  0.25403250D-07  0.19477601D-07  0.97206879D-08  0.12259994D-02
  0.32482753D-05  0.93888117D-04 -0.52859483D-08 -0.13021059D+00 -0.24021311D+00
 -0.38777844D+00 -0.50477231D+00 -0.43072313D+00 -0.14871834D+00  0.23867203D-02
  0.11000372D-02 -0.30846191D-02  0.74569718D-05  0.57175330D-05  0.28534497D-05
 -0.34979549D-03 -0.26820099D-03 -0.13385109D-03 -0.72524558D-08 -0.55607231D-08
 -0.27751906D-08  0.51955437D-03  0.36809850D-04  0.25206809D-03  0.12277838D-08
  0.17710808D+00  0.32672982D+00  0.52744324D+00  0.68657438D+00  0.58585516D+00
  0.20228171D+00 -0.32462744D-02 -0.14962049D-02  0.41955147D-02  0.96173266D-04
  0.73739560D-04  0.36801209D-04 -0.32085751D-03 -0.24601318D-03 -0.12277782D-03
 -0.47211502D-09 -0.36198785D-09 -0.18065731D-09 -0.70660001D-03 -0.11701133D-03
  0.20193508D-03 -0.46336128D-09 -0.52827990D-04 -0.89606269D-04 -0.10201357D-03
  0.19211987D-03 -0.22376388D-04 -0.37954590D-04 -0.43209959D-04  0.81401223D-04
  0.30424968D-04  0.51606504D-04  0.58752181D-04 -0.11065322D-03  0.52819746D-04
  0.89592286D-04  0.10199765D-03 -0.19206683D-03  0.22383053D-04  0.37965894D-04
  0.43222829D-04 -0.81426898D-04 -0.30445527D-04 -0.51641376D-04 -0.58791881D-04
  0.11076836D-03
MO    3     MO 0.0        OCC NO =    2.0000000  ORB. ENERGY =  -11.234506
  0.26979895D-01  0.49772638D-01  0.80348471D-01  0.10458984D+00  0.89246696D-01
  0.30814739D-01 -0.49448671D-03 -0.22790847D-03  0.63907915D-03  0.36095469D-03
  0.27675716D-03  0.13812122D-03  0.60223497D-04  0.46175558D-04  0.23044839D-04
 -0.28084894D-08 -0.21533716D-08 -0.10746833D-08 -0.10751116D-03 -0.27134525D-03
 -0.54611774D-04 -0.39665777D-09  0.27959746D+00  0.51580272D+00  0.83266551D+00
  0.10838831D+01  0.92487941D+00  0.31933863D+00 -0.51248591D-02 -0.23620429D-02
  0.66234147D-02  0.26958052D-03  0.20669724D-03  0.10315641D-03  0.79447032D-04
  0.60914945D-04  0.30400827D-04 -0.43675215D-07 -0.33487384D-07 -0.16712552D-07
 -0.11155520D-02 -0.11314184D-03 -0.88102448D-04  0.10365932D-07  0.25260151D+00
  0.46600047D+00  0.75226925D+00  0.97923104D+00  0.83557962D+00  0.28850556D+00
 -0.46301087D-02 -0.21340129D-02  0.59839949D-02  0.29854587D-03  0.22890604D-03
  0.11424016D-03 -0.92139087D-05 -0.70646407D-05 -0.35257509D-05 -0.60980518D-08
 -0.46755993D-08 -0.23334518D-08 -0.10081556D-02 -0.16336595D-03  0.65685027D-04
  0.60745634D-09 -0.27131493D-01 -0.50052306D-01 -0.80799942D-01 -0.10517752D+00
 -0.89748165D-01 -0.30987885D-01  0.49736886D-03  0.22923685D-03 -0.64280407D-03
  0.36098286D-03  0.27677876D-03  0.13813200D-03  0.60087379D-04  0.46071191D-04
  0.22992753D-04 -0.38536180D-08 -0.29547099D-08 -0.14746073D-08  0.10853168D-03
 -0.27143196D-03 -0.54439928D-04  0.16245757D-08 -0.27956757D+00 -0.51574758D+00
 -0.83257651D+00 -0.10837672D+01 -0.92478054D+00 -0.31930450D+00  0.51243060D-02
  0.23617879D-02 -0.66226999D-02  0.26959547D-03  0.20670870D-03  0.10316213D-03
  0.79546517D-04  0.60991224D-04  0.30438895D-04 -0.20876940D-07 -0.16007113D-07
 -0.79886713D-08  0.11154040D-02 -0.11308652D-03 -0.88000206D-04  0.24489409D-08
 -0.25248123D+00 -0.46577857D+00 -0.75191103D+00 -0.97876475D+00 -0.83518173D+00
 -0.28836818D+00  0.46278044D-02  0.21329508D-02 -0.59810167D-02  0.29852021D-03
  0.22888636D-03  0.11423034D-03 -0.93688254D-05 -0.71834211D-05 -0.35850306D-05
 -0.37810127D-08 -0.28990407D-08 -0.14468245D-08  0.10072867D-02 -0.16320009D-03
  0.65748242D-04  0.23002318D-08 -0.46436384D-05 -0.78764896D-05 -0.89671050D-05
  0.16868946D-04 -0.48069639D-04 -0.81535207D-04 -0.92824951D-04  0.17484042D-03
 -0.43426107D-04 -0.73658897D-04 -0.83858051D-04  0.15793675D-03  0.46603706D-05
  0.79048706D-05  0.89994158D-05 -0.16953801D-04  0.48066367D-04  0.81529656D-04
  0.92818632D-04 -0.17481742D-03  0.43412864D-04  0.73636434D-04  0.83832477D-04
 -0.15787627D-03
MO    4     MO 0.0        OCC NO =    2.0000000  ORB. ENERGY =  -11.233278
  0.30555173D+00  0.56368328D+00  0.90995959D+00  0.11844970D+01  0.10107334D+01
  0.34898197D+00 -0.59694135D-02 -0.27512972D-02  0.77149246D-02  0.97351995D-04
  0.74643335D-04  0.37252256D-04 -0.38570544D-03 -0.29573447D-03 -0.14759223D-03
  0.12932790D-07  0.99160431D-08  0.49488005D-08 -0.25771680D-02 -0.15551371D-03
  0.49106537D-03 -0.80445879D-09 -0.11574960D+00 -0.21353541D+00 -0.34471236D+00
 -0.44871307D+00 -0.38288768D+00 -0.13220191D+00  0.22613597D-02  0.10422586D-02
 -0.29226019D-02 -0.15923866D-03 -0.12209410D-03 -0.60933514D-04 -0.56585431D-05
 -0.43386119D-05 -0.21652714D-05  0.17974408D-07  0.13781636D-07  0.68780023D-08
  0.97625038D-03  0.26578481D-03  0.20440694D-03 -0.50635201D-08 -0.18971313D+00
 -0.34998368D+00 -0.56498218D+00 -0.73543892D+00 -0.62755137D+00 -0.21667841D+00
  0.37064140D-02  0.17082828D-02 -0.47902033D-02 -0.21062191D-03 -0.16149152D-03
 -0.80595587D-04 -0.13621872D-03 -0.10444388D-03 -0.52124815D-04  0.12066722D-08
  0.92519969D-09  0.46173949D-09  0.16006089D-02  0.39175450D-03  0.47798505D-04
 -0.11513712D-08  0.30557354D+00  0.56372352D+00  0.91002455D+00  0.11845816D+01
  0.10108056D+01  0.34900688D+00 -0.59699358D-02 -0.27515379D-02  0.77155996D-02
 -0.96958552D-04 -0.74341668D-04 -0.37101702D-04  0.38584217D-03  0.29583931D-03
  0.14764455D-03 -0.21273116D-07 -0.16310876D-07 -0.81402704D-08 -0.25779300D-02
  0.15531550D-03 -0.49141168D-03  0.29305773D-08 -0.11594399D+00 -0.21389402D+00
 -0.34529127D+00 -0.44946664D+00 -0.38353069D+00 -0.13242393D+00  0.22650969D-02
  0.10439811D-02 -0.29274320D-02  0.15953776D-03  0.12232344D-03  0.61047969D-04
  0.57273760D-05  0.43913886D-05  0.21916107D-05 -0.11054340D-07 -0.84757670D-08
 -0.42300017D-08  0.97799414D-03 -0.26619885D-03 -0.20438467D-03  0.26179254D-08
 -0.18978781D+00 -0.35012146D+00 -0.56520459D+00 -0.73572844D+00 -0.62779841D+00
 -0.21676370D+00  0.37076908D-02  0.17088713D-02 -0.47918535D-02  0.21086055D-03
  0.16167450D-03  0.80686904D-04  0.13608436D-03  0.10434086D-03  0.52073402D-04
 -0.48814797D-08 -0.37428090D-08 -0.18679240D-08  0.16004089D-02 -0.39170461D-03
 -0.47517336D-04  0.44487001D-08 -0.34417124D-04 -0.58377957D-04 -0.66461240D-04
  0.11441350D-03  0.13033582D-04  0.22107422D-04  0.25168519D-04 -0.43358312D-04
  0.21371381D-04  0.36249907D-04  0.41269237D-04 -0.70994839D-04 -0.34423578D-04
 -0.58388904D-04 -0.66473703D-04  0.11436277D-03  0.13067753D-04  0.22165383D-04
  0.25234505D-04 -0.43390664D-04  0.21380397D-04  0.36265200D-04  0.41286649D-04
 -0.71090510D-04
MO    5     MO 0.0        OCC NO =    2.0000000  ORB. ENERGY =  -11.233278
 -0.42590882D-01 -0.78571861D-01 -0.12683935D+00 -0.16510714D+00 -0.14088622D+00
 -0.48644627D-01  0.83215185D-03  0.38353803D-03 -0.10754807D-02  0.41642188D-04
  0.31928588D-04  0.15934603D-04  0.66534476D-04  0.51014416D-04  0.25459769D-04
 -0.82030712D-08 -0.62895947D-08 -0.31389486D-08  0.35946980D-03 -0.26825434D-03
 -0.13557983D-03  0.42342524D-08  0.28601649D+00  0.52764457D+00  0.85178194D+00
  0.11087670D+01  0.94611288D+00  0.32667004D+00 -0.55877394D-02 -0.25753840D-02
  0.72216455D-02  0.34985016D-03  0.26824292D-03  0.13387202D-03 -0.12904735D-03
 -0.98945324D-04 -0.49380651D-04 -0.40729933D-07 -0.31229129D-07 -0.15585524D-07
 -0.24124423D-02 -0.42738005D-03  0.24632287D-03  0.97299162D-08 -0.24332411D+00
 -0.44888547D+00 -0.72464033D+00 -0.94326640D+00 -0.80489093D+00 -0.27790950D+00
  0.47537121D-02  0.21909816D-02 -0.61437410D-02 -0.20791446D-03 -0.15941562D-03
 -0.79559566D-04 -0.24144751D-03 -0.18512664D-03 -0.92391166D-04 -0.29741455D-08
 -0.22803861D-08 -0.11380725D-08  0.20524717D-02  0.17527529D-03  0.41161330D-03
  0.13927148D-08 -0.42737398D-01 -0.78842155D-01 -0.12727568D+00 -0.16567512D+00
 -0.14137088D+00 -0.48811968D-01  0.83488924D-03  0.38479969D-03 -0.10790185D-02
 -0.41607802D-04 -0.31902223D-04 -0.15921445D-04 -0.66727317D-04 -0.51162274D-04
 -0.25533560D-04  0.51276439D-08  0.39315521D-08  0.19621201D-08  0.36035264D-03
  0.26823156D-03  0.13568687D-03 -0.21072055D-08  0.28593019D+00  0.52748536D+00
  0.85152493D+00  0.11084325D+01  0.94582742D+00  0.32657148D+00 -0.55861435D-02
 -0.25746484D-02  0.72195829D-02 -0.34986069D-03 -0.26825099D-03 -0.13387604D-03
  0.12868100D-03  0.98664429D-04  0.49240465D-04  0.17791963D-07  0.13641749D-07
  0.68081887D-08 -0.24120221D-02  0.42741332D-03 -0.24609508D-03 -0.29061589D-09
 -0.24326924D+00 -0.44878425D+00 -0.72447693D+00 -0.94305370D+00 -0.80470943D+00
 -0.27784683D+00  0.47526837D-02  0.21905076D-02 -0.61424118D-02  0.20808228D-03
  0.15954429D-03  0.79623783D-04  0.24113639D-03  0.18488809D-03  0.92272116D-04
 -0.50337973D-08 -0.38595965D-08 -0.19262091D-08  0.20521130D-02 -0.17540050D-03
 -0.41142206D-03  0.46678489D-08  0.47937317D-05  0.81310762D-05  0.92569428D-05
 -0.15937608D-04 -0.32221198D-04 -0.54653250D-04 -0.62220794D-04  0.10708670D-03
  0.27410067D-04  0.46492661D-04  0.52930251D-04 -0.91094367D-04  0.48172475D-05
  0.81709635D-05  0.93023531D-05 -0.16003208D-04 -0.32207059D-04 -0.54629268D-04
 -0.62193490D-04  0.10703862D-03  0.27401920D-04  0.46478842D-04  0.52914519D-04
 -0.91072192D-04
MO    6     MO 0.0        OCC NO =    2.0000000  ORB. ENERGY =  -11.232687
 -0.21826114D+00 -0.40264918D+00 -0.65000063D+00 -0.84610769D+00 -0.72198522D+00
 -0.24928415D+00  0.46077493D-02  0.21237074D-02 -0.59550974D-02 -0.79739484D-04
 -0.61139179D-04 -0.30512735D-04  0.34450447D-03  0.26414417D-03  0.13182646D-03
 -0.12482234D-07 -0.95705857D-08 -0.47763930D-08  0.41986052D-02  0.32388696D-03
 -0.14001067D-02  0.96658940D-08  0.21828157D+00  0.40268687D+00  0.65006147D+00
  0.84618689D+00  0.72205280D+00  0.24930748D+00 -0.46081017D-02 -0.21238699D-02
  0.59555528D-02  0.33817045D-03  0.25928765D-03  0.12940271D-03 -0.10337615D-03
 -0.79262272D-04 -0.39557429D-04 -0.80135222D-08 -0.61442606D-08 -0.30664166D-08
 -0.41986170D-02 -0.13743755D-02  0.41985055D-03 -0.17335800D-08 -0.21823317D+00
 -0.40259758D+00 -0.64991733D+00 -0.84599925D+00 -0.72189270D+00 -0.24925220D+00
  0.46071750D-02  0.21234427D-02 -0.59543551D-02 -0.25841811D-03 -0.19813862D-03
 -0.98885057D-04 -0.24130837D-03 -0.18501995D-03 -0.92337923D-04 -0.14178610D-07
 -0.10871259D-07 -0.54255201D-08  0.41982628D-02  0.10504853D-02  0.98054558D-03
  0.19089477D-07  0.21820101D+00  0.40253825D+00  0.64982155D+00  0.84587458D+00
  0.72178631D+00  0.24921547D+00 -0.46065585D-02 -0.21231586D-02  0.59535583D-02
 -0.79541403D-04 -0.60987303D-04 -0.30436939D-04  0.34445846D-03  0.26410890D-03
  0.13180885D-03 -0.42355255D-08 -0.32475323D-08 -0.16207462D-08 -0.41980546D-02
  0.32353247D-03 -0.14000694D-02 -0.90415330D-08 -0.21824794D+00 -0.40262483D+00
 -0.64996131D+00 -0.84605651D+00 -0.72194155D+00 -0.24926907D+00  0.46074578D-02
  0.21235731D-02 -0.59547206D-02  0.33818888D-03  0.25930178D-03  0.12940976D-03
 -0.10320353D-03 -0.79129924D-04 -0.39491378D-04 -0.10546115D-07 -0.80860918D-08
 -0.40355265D-08  0.41983687D-02 -0.13744124D-02  0.41957778D-03  0.14632760D-08
  0.21827847D+00  0.40268115D+00  0.65005224D+00  0.84617487D+00  0.72204255D+00
  0.24930394D+00 -0.46080474D-02 -0.21238448D-02  0.59554826D-02 -0.25858384D-03
 -0.19826569D-03 -0.98948473D-04 -0.24120160D-03 -0.18493808D-03 -0.92297066D-04
  0.17252526D-10  0.13228142D-10  0.66017702D-11 -0.41986119D-02  0.10507936D-02
  0.98031003D-03 -0.17206993D-07  0.49631847D-04  0.84185006D-04  0.95841654D-04
  0.17980192D-03 -0.49637692D-04 -0.84194921D-04 -0.95852942D-04 -0.17978993D-03
  0.49631049D-04  0.84183653D-04  0.95840114D-04  0.17980977D-03 -0.49625209D-04
 -0.84173746D-04 -0.95828835D-04 -0.17981970D-03  0.49633667D-04  0.84188094D-04
  0.95845169D-04  0.17980607D-03 -0.49636397D-04 -0.84192725D-04 -0.95850441D-04
 -0.17978942D-03
MO    7     MO 0.0        OCC NO =    2.0000000  ORB. ENERGY =   -1.155334
 -0.49811700D-01 -0.91892860D-01 -0.14834357D+00 -0.19309925D+00 -0.16477194D+00
 -0.56891791D-01 -0.72911286D-01 -0.33604745D-01  0.94231213D-01  0.18378076D-01
  0.14091143D-01  0.70324680D-02 -0.79420693D-01 -0.60894750D-01 -0.30390748D-01
 -0.74040379D-07 -0.56769466D-07 -0.28331942D-07  0.20241660D-01  0.27033882D-03
 -0.11700361D-02  0.30674928D-08 -0.49811971D-01 -0.91893360D-01 -0.14834438D+00
 -0.19310030D+00 -0.16477284D+00 -0.56892101D-01 -0.72911811D-01 -0.33604987D-01
  0.94231891D-01  0.77961696D-01  0.59776084D-01  0.29832455D-01 -0.23823899D-01
 -0.18266655D-01 -0.91163410D-02 -0.28429423D-05 -0.21797879D-05 -0.10878669D-05
  0.20241467D-01  0.11482091D-02 -0.35043609D-03 -0.87808181D-07 -0.49811754D-01
 -0.91892960D-01 -0.14834373D+00 -0.19309946D+00 -0.16477212D+00 -0.56891853D-01
 -0.72911425D-01 -0.33604809D-01  0.94231393D-01  0.59589788D-01  0.45689670D-01
  0.22802347D-01  0.55628711D-01  0.42652567D-01  0.21286620D-01 -0.10606050D-05
 -0.81320468D-06 -0.40584613D-06  0.20241518D-01  0.87796001D-03  0.81900560D-03
 -0.35853190D-07 -0.49811579D-01 -0.91892636D-01 -0.14834321D+00 -0.19309878D+00
 -0.16477154D+00 -0.56891652D-01 -0.72911102D-01 -0.33604660D-01  0.94230975D-01
 -0.18348455D-01 -0.14068432D-01 -0.70211334D-02  0.79427435D-01  0.60899919D-01
  0.30393328D-01 -0.10733272D-05 -0.82295919D-06 -0.41071431D-06  0.20241657D-01
 -0.27071241D-03  0.11699734D-02 -0.39616553D-07 -0.49811919D-01 -0.91893264D-01
 -0.14834422D+00 -0.19310010D+00 -0.16477266D+00 -0.56892041D-01 -0.72911741D-01
 -0.33604955D-01  0.94231801D-01 -0.77970541D-01 -0.59782865D-01 -0.29835840D-01
  0.23795099D-01  0.18244573D-01  0.91053205D-02  0.49799479D-06  0.38183082D-06
  0.19056034D-06  0.20241420D-01 -0.11480741D-02  0.35079471D-03  0.27914823D-07
 -0.49811848D-01 -0.91893133D-01 -0.14834401D+00 -0.19309982D+00 -0.16477243D+00
 -0.56891960D-01 -0.72911557D-01 -0.33604870D-01  0.94231563D-01 -0.59610595D-01
 -0.45705624D-01 -0.22810309D-01 -0.55606406D-01 -0.42635465D-01 -0.21278085D-01
  0.12116139D-05  0.92898866D-06  0.46363045D-06  0.20241579D-01 -0.87772273D-03
 -0.81929470D-03  0.23507877D-07  0.77875544D-02  0.13209166D-01  0.15038169D-01
  0.84745360D-03  0.77875476D-02  0.13209155D-01  0.15038156D-01  0.84726383D-03
  0.77875183D-02  0.13209105D-01  0.15038099D-01  0.84734898D-03  0.77875252D-02
  0.13209117D-01  0.15038112D-01  0.84745937D-03  0.77875196D-02  0.13209107D-01
  0.15038102D-01  0.84725121D-03  0.77875551D-02  0.13209167D-01  0.15038170D-01
  0.84736198D-03
MO    8     MO 0.0        OCC NO =    2.0000000  ORB. ENERGY =   -1.016765
 -0.16994836D-01 -0.31352153D-01 -0.50612097D-01 -0.65881912D-01 -0.56217155D-01
 -0.19410433D-01 -0.25429739D-01 -0.11720544D-01  0.32865627D-01 -0.13944033D+00
 -0.10691400D+00 -0.53357580D-01 -0.42794580D-01 -0.32812169D-01 -0.16375572D-01
  0.64898089D-06  0.49759738D-06  0.24833597D-06  0.88885334D-02 -0.14315918D-02
 -0.20753325D-03  0.23829287D-07 -0.66710380D-01 -0.12306763D+00 -0.19866931D+00
 -0.25860841D+00 -0.22067102D+00 -0.76192401D-01 -0.99821151D-01 -0.46007477D-01
  0.12900977D+00  0.26660664D-01  0.20441707D-01  0.10201844D-01 -0.50922562D-01
 -0.39044190D-01 -0.19485787D-01 -0.49521049D-05 -0.37969599D-05 -0.18949491D-05
  0.34885492D-01 -0.57621869D-03 -0.24735554D-03 -0.19949585D-06 -0.49711786D-01
 -0.91708538D-01 -0.14804602D+00 -0.19271192D+00 -0.16444143D+00 -0.56777676D-01
 -0.74385619D-01 -0.34284264D-01  0.96136655D-01 -0.49405970D-01 -0.37881364D-01
 -0.18905456D-01  0.97042442D-01  0.74405989D-01  0.37133803D-01 -0.13772501D-05
 -0.10559880D-05 -0.52701202D-06  0.25995824D-01 -0.96850120D-03  0.51385370D-03
 -0.72979422D-07  0.17008456D-01  0.31377279D-01  0.50652658D-01  0.65934710D-01
  0.56262208D-01  0.19425988D-01  0.25450550D-01  0.11730135D-01 -0.32892523D-01
 -0.13945570D+00 -0.10692579D+00 -0.53363461D-01 -0.42810396D-01 -0.32824296D-01
 -0.16381624D-01  0.57102422D-06  0.43782515D-06  0.21850544D-06 -0.88934593D-02
 -0.14322206D-02 -0.20447774D-03  0.39865675D-07  0.66706498D-01  0.12306046D+00
  0.19865775D+00  0.25859336D+00  0.22065818D+00  0.76187967D-01  0.99815222D-01
  0.46004745D-01 -0.12900211D+00  0.26679280D-01  0.20455979D-01  0.10208967D-01
 -0.50851137D-01 -0.38989427D-01 -0.19458457D-01 -0.10869375D-05 -0.83339472D-06
 -0.41592237D-06 -0.34884090D-01 -0.57545882D-03 -0.24785804D-03 -0.58754945D-07
  0.49702062D-01  0.91690599D-01  0.14801706D+00  0.19267423D+00  0.16440927D+00
  0.56766569D-01  0.74370759D-01  0.34277415D-01 -0.96117450D-01 -0.49374835D-01
 -0.37857492D-01 -0.18893542D-01  0.96996211D-01  0.74370542D-01  0.37116113D-01
 -0.90956409D-06 -0.69739605D-06 -0.34804951D-06 -0.25992310D-01 -0.96699429D-03
  0.51553252D-03 -0.22215000D-07  0.41238239D-02  0.69947859D-02  0.79633165D-02
  0.70043587D-03  0.16184941D-01  0.27452724D-01  0.31253956D-01  0.27455543D-02
  0.12060512D-01  0.20456912D-01  0.23289471D-01  0.20455255D-02 -0.41259433D-02
 -0.69983807D-02 -0.79674091D-02 -0.69919017D-03 -0.16184287D-01 -0.27451614D-01
 -0.31252692D-01 -0.27458916D-02 -0.12059038D-01 -0.20454411D-01 -0.23286624D-01
 -0.20464332D-02
MO    9     MO 0.0        OCC NO =    2.0000000  ORB. ENERGY =   -1.016762
 -0.67214077D-01 -0.12399685D+00 -0.20016936D+00 -0.26056103D+00 -0.22233720D+00
 -0.76767691D-01 -0.10057488D+00 -0.46354871D-01  0.12998390D+00  0.45058095D-01
  0.34547690D-01  0.17241718D-01 -0.31326966D-01 -0.24019531D-01 -0.11987429D-01
 -0.26015881D-06 -0.19947328D-06 -0.99551145D-07  0.35149214D-01  0.24650361D-03
  0.55209215D-03 -0.11622493D-07 -0.18875511D-01 -0.34821632D-01 -0.56212911D-01
 -0.73172507D-01 -0.62438233D-01 -0.21558421D-01 -0.28243902D-01 -0.13017589D-01
  0.36502677D-01  0.53096930D-01  0.40711358D-01  0.20317821D-01  0.13477418D+00
  0.10333629D+00  0.51572053D-01 -0.14107424D-05 -0.10816678D-05 -0.53982803D-06
  0.98719659D-02  0.28984130D-03  0.14075505D-02 -0.65981902D-07  0.48324870D-01
  0.89149949D-01  0.14391566D+00  0.18733543D+00  0.15985366D+00  0.55193627D-01
  0.72310081D-01  0.33327650D-01 -0.93454210D-01 -0.94775277D-01 -0.72667671D-01
 -0.36266261D-01  0.58706245D-01  0.45012225D-01  0.22464255D-01  0.17635055D-05
  0.13521442D-05  0.67481472D-06 -0.25272176D-01 -0.47485138D-03  0.10152409D-02
  0.86712272D-07  0.67210677D-01  0.12399058D+00  0.20015923D+00  0.26054785D+00
  0.22232595D+00  0.76763809D-01  0.10056968D+00  0.46352475D-01 -0.12997718D+00
  0.44984858D-01  0.34491536D-01  0.17213694D-01 -0.31341060D-01 -0.24030337D-01
 -0.11992822D-01  0.23007567D-05  0.17640743D-05  0.88039671D-06 -0.35148006D-01
  0.24694248D-03  0.55136719D-03  0.96678699D-07  0.18889146D-01  0.34846786D-01
  0.56253517D-01  0.73225365D-01  0.62483337D-01  0.21573995D-01  0.28264733D-01
  0.13027190D-01 -0.36529599D-01  0.53114404D-01  0.40724756D-01  0.20324507D-01
  0.13479062D+00  0.10334890D+00  0.51578344D-01 -0.71138557D-06 -0.54544533D-06
 -0.27221545D-06 -0.98769155D-02  0.28685324D-03  0.14083856D-02 -0.31824062D-07
 -0.48334887D-01 -0.89168428D-01 -0.14394549D+00 -0.18737426D+00 -0.15988679D+00
 -0.55205068D-01 -0.72325390D-01 -0.33334706D-01  0.93473995D-01 -0.94818134D-01
 -0.72700531D-01 -0.36282660D-01  0.58739699D-01  0.45037876D-01  0.22477056D-01
  0.85678298D-06  0.65692685D-06  0.32785254D-06  0.25275779D-01 -0.47303127D-03
  0.10166769D-02  0.29539424D-07  0.16307424D-01  0.27660478D-01  0.31490477D-01
  0.27664528D-02  0.45801451D-02  0.77687929D-02  0.88444961D-02  0.77783173D-03
 -0.11725033D-01 -0.19887875D-01 -0.22641643D-01 -0.19898005D-02 -0.16306874D-01
 -0.27659545D-01 -0.31489414D-01 -0.27667728D-02 -0.45822820D-02 -0.77724176D-02
 -0.88486227D-02 -0.77660093D-03  0.11726622D-01  0.19890570D-01  0.22644711D-01
  0.19888805D-02
MO   10     MO 0.0        OCC NO =    2.0000000  ORB. ENERGY =   -0.823794
 -0.53782352D-01 -0.99217938D-01 -0.16016852D+00 -0.20849182D+00 -0.17790645D+00
 -0.61426820D-01 -0.81908245D-01 -0.37751435D-01  0.10585896D+00 -0.47802543D-01
 -0.36651958D-01 -0.18291896D-01  0.70815663D-01  0.54296959D-01  0.27097988D-01
  0.80392153D-06  0.61639604D-06  0.30762482D-06  0.33621877D-01 -0.23508897D-02
  0.66924627D-02 -0.15660247D-07  0.21595664D-01  0.39839783D-01  0.64313763D-01
  0.83717411D-01  0.71436218D-01  0.24665209D-01  0.32889496D-01  0.15158739D-01
 -0.42506686D-01  0.10324060D+00  0.79158344D-01  0.39505562D-01  0.22844704D+00
  0.17515870D+00  0.87416466D-01  0.29507381D-05  0.22624388D-05  0.11291155D-05
 -0.13500510D-01  0.45604805D-02  0.52396838D-02  0.14245001D-06  0.32177843D-01
  0.59361837D-01  0.95828411D-01  0.12474012D+00  0.10644097D+00  0.36751509D-01
  0.49005721D-01  0.22586692D-01 -0.63335443D-01  0.18363388D+00  0.14079881D+00
  0.70268475D-01 -0.12685384D+00 -0.97263475D-01 -0.48541291D-01  0.14292851D-05
  0.10958852D-05  0.54692351D-06 -0.20115899D-01  0.68788390D-02 -0.11884324D-02
  0.16108449D-06 -0.53781249D-01 -0.99215902D-01 -0.16016523D+00 -0.20848754D+00
 -0.17790280D+00 -0.61425560D-01 -0.81906615D-01 -0.37750684D-01  0.10585686D+00
  0.47774078D-01  0.36630133D-01  0.18281004D-01 -0.70818179D-01 -0.54298888D-01
 -0.27098950D-01 -0.40321400D-05 -0.30915892D-05 -0.15429197D-05  0.33621205D-01
  0.23471452D-02 -0.66932892D-02 -0.25535008D-06  0.21604285D-01  0.39855687D-01
  0.64339437D-01  0.83750829D-01  0.71464734D-01  0.24675055D-01  0.32902262D-01
  0.15164622D-01 -0.42523184D-01 -0.10327241D+00 -0.79182734D-01 -0.39517734D-01