 Title Card Required
GAUSSIAN             21 MOL ORBITALS    234 PRIMITIVES       12 NUCLEI
  C    1    (CENTRE  1)  -2.53859332 -0.73405191  0.00000573  CHARGE =  6.0
  C    2    (CENTRE  2)  -0.63337412 -2.56549779  0.00013488  CHARGE =  6.0
  C    3    (CENTRE  3)   1.90497275 -1.83144961 -0.00011553  CHARGE =  6.0
  C    4    (CENTRE  4)   2.53853245  0.73426608  0.00001491  CHARGE =  6.0
  C    5    (CENTRE  5)   0.63358637  2.56544085  0.00012072  CHARGE =  6.0
  C    6    (CENTRE  6)  -1.90512406  1.83129615 -0.00011360  CHARGE =  6.0
  H    7    (CENTRE  7)  -4.51037841 -1.30445783 -0.00011838  CHARGE =  1.0
  H    8    (CENTRE  8)  -1.12570563 -4.55823102  0.00014933  CHARGE =  1.0
  H    9    (CENTRE  9)   3.38491845 -3.25377746 -0.00026459  CHARGE =  1.0
  H   10    (CENTRE 10)   4.51045008  1.30417084  0.00002496  CHARGE =  1.0
  H   11    (CENTRE 11)   1.12544755  4.55827825  0.00002273  CHARGE =  1.0
  H   12    (CENTRE 12)  -3.38473245  3.25399457 -0.00009670  CHARGE =  1.0
CENTRE ASSIGNMENTS    1  1  1  1  1  1  1  1  1  1  1  1  1  1  1  1  1  1  1  1
CENTRE ASSIGNMENTS    1  1  1  1  1  1  1  1  1  1  1  1  2  2  2  2  2  2  2  2
CENTRE ASSIGNMENTS    2  2  2  2  2  2  2  2  2  2  2  2  2  2  2  2  2  2  2  2
CENTRE ASSIGNMENTS    2  2  2  2  3  3  3  3  3  3  3  3  3  3  3  3  3  3  3  3
CENTRE ASSIGNMENTS    3  3  3  3  3  3  3  3  3  3  3  3  3  3  3  3  4  4  4  4
CENTRE ASSIGNMENTS    4  4  4  4  4  4  4  4  4  4  4  4  4  4  4  4  4  4  4  4
CENTRE ASSIGNMENTS    4  4  4  4  4  4  4  4  5  5  5  5  5  5  5  5  5  5  5  5
CENTRE ASSIGNMENTS    5  5  5  5  5  5  5  5  5  5  5  5  5  5  5  5  5  5  5  5
CENTRE ASSIGNMENTS    6  6  6  6  6  6  6  6  6  6  6  6  6  6  6  6  6  6  6  6
CENTRE ASSIGNMENTS    6  6  6  6  6  6  6  6  6  6  6  6  7  7  7  7  7  7  7  8
CENTRE ASSIGNMENTS    8  8  8  8  8  8  9  9  9  9  9  9  9 10 10 10 10 10 10 10
CENTRE ASSIGNMENTS   11 11 11 11 11 11 11 12 12 12 12 12 12 12
TYPE ASSIGNMENTS      1  1  1  1  1  1  1  1  1  2  2  2  3  3  3  4  4  4  1  2
TYPE ASSIGNMENTS      3  4  1  2  3  4  5  6  7  8  9 10  1  1  1  1  1  1  1  1
TYPE ASSIGNMENTS      1  2  2  2  3  3  3  4  4  4  1  2  3  4  1  2  3  4  5  6
TYPE ASSIGNMENTS      7  8  9 10  1  1  1  1  1  1  1  1  1  2  2  2  3  3  3  4
TYPE ASSIGNMENTS      4  4  1  2  3  4  1  2  3  4  5  6  7  8  9 10  1  1  1  1
TYPE ASSIGNMENTS      1  1  1  1  1  2  2  2  3  3  3  4  4  4  1  2  3  4  1  2
TYPE ASSIGNMENTS      3  4  5  6  7  8  9 10  1  1  1  1  1  1  1  1  1  2  2  2
TYPE ASSIGNMENTS      3  3  3  4  4  4  1  2  3  4  1  2  3  4  5  6  7  8  9 10
TYPE ASSIGNMENTS      1  1  1  1  1  1  1  1  1  2  2  2  3  3  3  4  4  4  1  2
TYPE ASSIGNMENTS      3  4  1  2  3  4  5  6  7  8  9 10  1  1  1  1  2  3  4  1
TYPE ASSIGNMENTS      1  1  1  2  3  4  1  1  1  1  2  3  4  1  1  1  1  2  3  4
TYPE ASSIGNMENTS      1  1  1  1  2  3  4  1  1  1  1  2  3  4
EXPONENTS  0.3047525D+04 0.4573695D+03 0.1039487D+03 0.2921016D+02 0.9286663D+01
EXPONENTS  0.3163927D+01 0.7868272D+01 0.1881289D+01 0.5442493D+00 0.7868272D+01
EXPONENTS  0.1881289D+01 0.5442493D+00 0.7868272D+01 0.1881289D+01 0.5442493D+00
EXPONENTS  0.7868272D+01 0.1881289D+01 0.5442493D+00 0.1687145D+00 0.1687145D+00
EXPONENTS  0.1687145D+00 0.1687145D+00 0.4380000D-01 0.4380000D-01 0.4380000D-01
EXPONENTS  0.4380000D-01 0.8000000D+00 0.8000000D+00 0.8000000D+00 0.8000000D+00
EXPONENTS  0.8000000D+00 0.8000000D+00 0.3047525D+04 0.4573695D+03 0.1039487D+03
EXPONENTS  0.2921016D+02 0.9286663D+01 0.3163927D+01 0.7868272D+01 0.1881289D+01
EXPONENTS  0.5442493D+00 0.7868272D+01 0.1881289D+01 0.5442493D+00 0.7868272D+01
EXPONENTS  0.1881289D+01 0.5442493D+00 0.7868272D+01 0.1881289D+01 0.5442493D+00
EXPONENTS  0.1687145D+00 0.1687145D+00 0.1687145D+00 0.1687145D+00 0.4380000D-01
EXPONENTS  0.4380000D-01 0.4380000D-01 0.4380000D-01 0.8000000D+00 0.8000000D+00
EXPONENTS  0.8000000D+00 0.8000000D+00 0.8000000D+00 0.8000000D+00 0.3047525D+04
EXPONENTS  0.4573695D+03 0.1039487D+03 0.2921016D+02 0.9286663D+01 0.3163927D+01
EXPONENTS  0.7868272D+01 0.1881289D+01 0.5442493D+00 0.7868272D+01 0.1881289D+01
EXPONENTS  0.5442493D+00 0.7868272D+01 0.1881289D+01 0.5442493D+00 0.7868272D+01
EXPONENTS  0.1881289D+01 0.5442493D+00 0.1687145D+00 0.1687145D+00 0.1687145D+00
EXPONENTS  0.1687145D+00 0.4380000D-01 0.4380000D-01 0.4380000D-01 0.4380000D-01
EXPONENTS  0.8000000D+00 0.8000000D+00 0.8000000D+00 0.8000000D+00 0.8000000D+00
EXPONENTS  0.8000000D+00 0.3047525D+04 0.4573695D+03 0.1039487D+03 0.2921016D+02
EXPONENTS  0.9286663D+01 0.3163927D+01 0.7868272D+01 0.1881289D+01 0.5442493D+00
EXPONENTS  0.7868272D+01 0.1881289D+01 0.5442493D+00 0.7868272D+01 0.1881289D+01
EXPONENTS  0.5442493D+00 0.7868272D+01 0.1881289D+01 0.5442493D+00 0.1687145D+00
EXPONENTS  0.1687145D+00 0.1687145D+00 0.1687145D+00 0.4380000D-01 0.4380000D-01
EXPONENTS  0.4380000D-01 0.4380000D-01 0.8000000D+00 0.8000000D+00 0.8000000D+00
EXPONENTS  0.8000000D+00 0.8000000D+00 0.8000000D+00 0.3047525D+04 0.4573695D+03
EXPONENTS  0.1039487D+03 0.2921016D+02 0.9286663D+01 0.3163927D+01 0.7868272D+01
EXPONENTS  0.1881289D+01 0.5442493D+00 0.7868272D+01 0.1881289D+01 0.5442493D+00
EXPONENTS  0.7868272D+01 0.1881289D+01 0.5442493D+00 0.7868272D+01 0.1881289D+01
EXPONENTS  0.5442493D+00 0.1687145D+00 0.1687145D+00 0.1687145D+00 0.1687145D+00
EXPONENTS  0.4380000D-01 0.4380000D-01 0.4380000D-01 0.4380000D-01 0.8000000D+00
EXPONENTS  0.8000000D+00 0.8000000D+00 0.8000000D+00 0.8000000D+00 0.8000000D+00
EXPONENTS  0.3047525D+04 0.4573695D+03 0.1039487D+03 0.2921016D+02 0.9286663D+01
EXPONENTS  0.3163927D+01 0.7868272D+01 0.1881289D+01 0.5442493D+00 0.7868272D+01
EXPONENTS  0.1881289D+01 0.5442493D+00 0.7868272D+01 0.1881289D+01 0.5442493D+00
EXPONENTS  0.7868272D+01 0.1881289D+01 0.5442493D+00 0.1687145D+00 0.1687145D+00
EXPONENTS  0.1687145D+00 0.1687145D+00 0.4380000D-01 0.4380000D-01 0.4380000D-01
EXPONENTS  0.4380000D-01 0.8000000D+00 0.8000000D+00 0.8000000D+00 0.8000000D+00
EXPONENTS  0.8000000D+00 0.8000000D+00 0.1873114D+02 0.2825394D+01 0.6401217D+00
EXPONENTS  0.1612778D+00 0.1100000D+01 0.1100000D+01 0.1100000D+01 0.1873114D+02
EXPONENTS  0.2825394D+01 0.6401217D+00 0.1612778D+00 0.1100000D+01 0.1100000D+01
EXPONENTS  0.1100000D+01 0.1873114D+02 0.2825394D+01 0.6401217D+00 0.1612778D+00
EXPONENTS  0.1100000D+01 0.1100000D+01 0.1100000D+01 0.1873114D+02 0.2825394D+01
EXPONENTS  0.6401217D+00 0.1612778D+00 0.1100000D+01 0.1100000D+01 0.1100000D+01
EXPONENTS  0.1873114D+02 0.2825394D+01 0.6401217D+00 0.1612778D+00 0.1100000D+01
EXPONENTS  0.1100000D+01 0.1100000D+01 0.1873114D+02 0.2825394D+01 0.6401217D+00
EXPONENTS  0.1612778D+00 0.1100000D+01 0.1100000D+01 0.1100000D+01
MO    1     MO 0.0        OCC NO =    2.0000000  ORB. ENERGY =  -10.198795
  0.21806433D+00  0.40228611D+00  0.64941451D+00  0.84534473D+00  0.72133419D+00
  0.24905936D+00 -0.80349686D-02 -0.37033097D-02  0.10384467D-01 -0.12824058D-03
 -0.98326745D-04 -0.49071937D-04 -0.37323858D-04 -0.28617567D-04 -0.14282172D-04
 -0.12820845D-07 -0.98302110D-08 -0.49059643D-08 -0.72506223D-03  0.51012260D-04
  0.14919931D-04  0.66362653D-08  0.24356758D-04  0.14454172D-04  0.40986450D-05
  0.63196011D-08 -0.41802749D-02 -0.43420632D-02 -0.43710074D-02  0.10208968D-03
  0.83487743D-08  0.31203956D-07  0.21733344D+00  0.40093775D+00  0.64723785D+00
  0.84251136D+00  0.71891647D+00  0.24822458D+00 -0.80075783D-02 -0.36906855D-02
  0.10349067D-01 -0.31568741D-04 -0.24204909D-04 -0.12079946D-04 -0.13004812D-03
 -0.99712653D-04 -0.49763602D-04 -0.14612162D-07 -0.11203679D-07 -0.55914211D-08
 -0.72108015D-03  0.12384281D-04  0.51968768D-04  0.89977106D-08  0.21043557D-04
  0.36611695D-05  0.14268063D-04 -0.16332778D-07 -0.43320773D-02 -0.41630650D-02
 -0.43567541D-02  0.89640723D-04  0.13174357D-07 -0.28209039D-08  0.21709583D+00
  0.40049942D+00  0.64653024D+00  0.84159027D+00  0.71813051D+00  0.24795321D+00
 -0.79986934D-02 -0.36865905D-02  0.10337584D-01  0.96598589D-04  0.74065671D-04
  0.36963961D-04 -0.92357222D-04 -0.70813660D-04 -0.35340979D-04  0.12744117D-07
  0.97713803D-08  0.48766036D-08 -0.72012713D-03 -0.38664814D-04  0.36855729D-04
 -0.65775522D-08  0.21797790D-04 -0.10621370D-04  0.10230537D-04  0.16952308D-07
 -0.42387678D-02 -0.42465796D-02 -0.43521903D-02 -0.19085259D-03  0.44816075D-08
  0.13919941D-07  0.21700294D+00  0.40032804D+00  0.64625359D+00  0.84123015D+00
  0.71782321D+00  0.24784711D+00 -0.79953307D-02 -0.36850406D-02  0.10333238D-01
  0.12822296D-03  0.98313233D-04  0.49065194D-04  0.37154877D-04  0.28488003D-04
  0.14217510D-04  0.10393799D-07  0.79693055D-08  0.39772420D-08 -0.72077261D-03
 -0.50803440D-04 -0.14781208D-04 -0.38146655D-08  0.23345528D-04 -0.14285526D-04
 -0.40473578D-05 -0.63811337D-08 -0.41598089D-02 -0.43214908D-02 -0.43503266D-02
  0.10141215D-03  0.16945387D-07 -0.22323015D-07  0.21676178D+00  0.39988317D+00
  0.64553542D+00  0.84029531D+00  0.71702551D+00  0.24757168D+00 -0.79861127D-02
 -0.36807920D-02  0.10321325D-01  0.32539426D-04  0.24949168D-04  0.12451383D-04
  0.12988351D-03  0.99586437D-04  0.49700612D-04 -0.36044611D-07 -0.27636722D-07
 -0.13792661D-07 -0.71756713D-03 -0.13276765D-04 -0.52215848D-04  0.18701055D-07
  0.18865740D-04 -0.34121767D-05 -0.14108840D-04 -0.37578746D-08 -0.43214028D-02
 -0.41519996D-02 -0.43457086D-02  0.88501060D-04 -0.20168282D-07 -0.21092879D-07
  0.21775124D+00  0.40170852D+00  0.64848211D+00  0.84413102D+00  0.72029853D+00
  0.24870177D+00 -0.80232963D-02 -0.36979299D-02  0.10369381D-01 -0.95753021D-04
 -0.73417343D-04 -0.36640400D-04  0.93124041D-04  0.71401608D-04  0.35634407D-04
  0.38383181D-07  0.29429788D-07  0.14687527D-07 -0.72404491D-03  0.37755591D-04
 -0.37129671D-04 -0.18083207D-07  0.24123744D-04  0.10912450D-04 -0.10265872D-04
  0.40651893D-08 -0.42512012D-02 -0.42591125D-02 -0.43648668D-02 -0.19105899D-03
 -0.25190977D-07  0.68610155D-08 -0.42780158D-04 -0.72563246D-04 -0.82610691D-04
  0.20293612D-03 -0.74664316D-04 -0.21610284D-04 -0.10804397D-07 -0.42697420D-04
 -0.72422905D-04 -0.82450918D-04  0.20269042D-03 -0.18433651D-04 -0.74802824D-04
 -0.97279994D-08 -0.42672197D-04 -0.72380122D-04 -0.82402211D-04  0.20254667D-03
  0.55502939D-04 -0.53409390D-04  0.10431915D-08 -0.42676974D-04 -0.72388226D-04
 -0.82411436D-04  0.20232241D-03  0.74017094D-04  0.21435678D-04  0.29247806D-08
 -0.42624266D-04 -0.72298822D-04 -0.82309653D-04  0.20255233D-03  0.18394004D-04
  0.74375956D-04 -0.21516515D-07 -0.42753683D-04 -0.72518338D-04 -0.82559565D-04
  0.20272362D-03 -0.55828726D-04  0.53757458D-04  0.17425596D-07
MO    2     MO 0.0        OCC NO =    2.0000000  ORB. ENERGY =  -10.198530
 -0.28152106D+00 -0.51935139D+00 -0.83839418D+00 -0.10913401D+01 -0.93124249D+00
 -0.32153565D+00  0.10536682D-01  0.48563471D-02 -0.13617704D-01 -0.38574403D-04
 -0.29576405D-04 -0.14760699D-04  0.12954906D-03  0.99330001D-04  0.49572632D-04
  0.18780907D-07  0.14400008D-07  0.71866133D-08  0.13478806D-02  0.64642619D-04
 -0.89695246D-04 -0.91897266D-08 -0.55277837D-03 -0.71699090D-04  0.46811046D-05
  0.82435328D-08  0.53450450D-02  0.54802167D-02  0.54719350D-02  0.11310434D-04
 -0.45029296D-07 -0.30565678D-07 -0.33330602D-01 -0.61488453D-01 -0.99261429D-01
 -0.12920889D+00 -0.11025418D+00 -0.38068118D-01  0.12475483D-02  0.57499387D-03
 -0.16123428D-02 -0.32495193D-03 -0.24915253D-03 -0.12434457D-03  0.80177096D-04
  0.61474712D-04  0.30680190D-04 -0.40041431D-10 -0.30701230D-10 -0.15322065D-10
  0.15813758D-03  0.25108009D-03 -0.58301155D-04  0.34793168D-08 -0.62688944D-04
 -0.60460813D-04  0.68826342D-05 -0.89297425D-08  0.59997580D-03  0.68267648D-03
  0.64774753D-03 -0.18547086D-03  0.46818488D-07  0.16553684D-07  0.24768496D+00
  0.45693039D+00  0.73762733D+00  0.96017162D+00  0.81931618D+00  0.28289019D+00
 -0.92696840D-02 -0.42723889D-02  0.11980224D-01 -0.13839847D-03 -0.10611517D-03
 -0.52958905D-04 -0.14368315D-03 -0.11016712D-03 -0.54981116D-04  0.22269953D-07
  0.17075187D-07  0.85217152D-08 -0.11823155D-02  0.12894748D-03  0.89091074D-04
 -0.21754886D-07  0.48105565D-03 -0.67459487D-04  0.15020298D-04  0.15177062D-07
 -0.47006548D-02 -0.48252764D-02 -0.48148345D-02 -0.91220698D-04 -0.40933611D-07
  0.10582617D-07  0.28190811D+00  0.52006542D+00  0.83954684D+00  0.10928405D+01
  0.93252281D+00  0.32197772D+00 -0.10550713D-01 -0.48628139D-02  0.13635838D-01
 -0.37843220D-04 -0.29015781D-04 -0.14480908D-04  0.12936786D-03  0.99191069D-04
  0.49503295D-04  0.87425815D-08  0.67032570D-08  0.33453950D-08 -0.13477956D-02
  0.63927550D-04 -0.89525939D-04  0.48838739D-08  0.55017256D-03 -0.71487976D-04
  0.45903313D-05 -0.10349816D-07 -0.53527306D-02 -0.54887502D-02 -0.54799298D-02
 -0.10944244D-04 -0.10018954D-07 -0.19183839D-07  0.34734535D-01  0.64078435D-01
  0.10344246D+00  0.13465135D+00  0.11489824D+00  0.39671601D-01 -0.12997082D-02
 -0.59903430D-03  0.16797547D-02 -0.32490971D-03 -0.24912016D-03 -0.12432842D-03
  0.80292153D-04  0.61562930D-04  0.30724217D-04 -0.39125211D-08 -0.29998730D-08
 -0.14971469D-08 -0.16538611D-03  0.25123813D-03 -0.57614582D-04 -0.27798459D-08
  0.67814963D-04 -0.60571157D-04  0.64105567D-05  0.88677024D-08 -0.62643885D-03
 -0.70901883D-03 -0.67545261D-03  0.18540733D-03  0.46102737D-07  0.14657116D-07
 -0.24726396D+00 -0.45615373D+00 -0.73637356D+00 -0.95853958D+00 -0.81792356D+00
 -0.28240935D+00  0.92543558D-02  0.42653241D-02 -0.11960414D-01 -0.13910261D-03
 -0.10665506D-03 -0.53228349D-04 -0.14355588D-03 -0.11006954D-03 -0.54932416D-04
 -0.48608622D-07 -0.37270008D-07 -0.18600346D-07  0.11821315D-02  0.12964477D-03
  0.88937709D-04  0.26466582D-07 -0.48334943D-03 -0.67681846D-04  0.15014831D-04
 -0.13309227D-07  0.46919547D-02  0.48165195D-02  0.48061751D-02  0.90264992D-04
 -0.13429021D-07 -0.16196356D-07  0.30379435D-04  0.51529272D-04  0.58664255D-04
 -0.13041663D-03  0.17724491D-03  0.56841660D-04  0.16648381D-07  0.35495147D-05
  0.60206488D-05  0.68542958D-05 -0.15619033D-04 -0.76046471D-05  0.24481627D-04
 -0.34492748D-08 -0.26761583D-04 -0.45392709D-04 -0.51677995D-04  0.11548817D-03
  0.11224111D-03 -0.11884987D-03  0.30837272D-08 -0.30484015D-04 -0.51706659D-04
 -0.58866204D-04  0.13110450D-03  0.17714976D-03  0.56782903D-04 -0.48483989D-08
 -0.37698961D-05 -0.63944573D-05 -0.72798637D-05  0.16303064D-04 -0.73675299D-05
  0.25383323D-04  0.23774587D-08  0.26650795D-04  0.45204793D-04  0.51464059D-04
 -0.11479305D-03  0.11225305D-03 -0.11891785D-03 -0.16009528D-07
MO    3     MO 0.0        OCC NO =    2.0000000  ORB. ENERGY =  -10.198529
  0.12317785D+00  0.22723908D+00  0.36683433D+00  0.47750930D+00  0.40745955D+00
  0.14068599D+00 -0.46105043D-02 -0.21249772D-02  0.59586579D-02 -0.85146465D-04
 -0.65284908D-04 -0.32581745D-04  0.29662469D-03  0.22743300D-03  0.11350501D-03
 -0.15158377D-08 -0.11622482D-08 -0.58004333D-09 -0.59171117D-03  0.49520069D-04
 -0.23308430D-03 -0.10844423D-07  0.24404113D-03  0.13085495D-04  0.61738367D-04
  0.21023041D-07 -0.23979536D-02 -0.23383397D-02 -0.23940669D-02  0.18357587D-03
 -0.40163263D-07 -0.28056419D-08  0.30538039D+00  0.56336718D+00  0.90944931D+00
  0.11838328D+01  0.10101667D+01  0.34878627D+00 -0.11429189D-01 -0.52677026D-02
  0.14771188D-01 -0.36102301D-04 -0.27680955D-04 -0.13814736D-04  0.96460601D-05
  0.73959871D-05  0.36911159D-05 -0.33404336D-07 -0.25612326D-07 -0.12782346D-07
 -0.14578704D-02  0.18738618D-04 -0.44163776D-04  0.34219979D-07  0.59414977D-03
  0.10940236D-04  0.72378559D-04 -0.26929790D-07 -0.59293209D-02 -0.58147892D-02
 -0.59361546D-02  0.35123397D-04  0.14562843D-07  0.24748161D-08  0.18227982D+00
  0.33627068D+00  0.54284515D+00  0.70662309D+00  0.60296276D+00  0.20818855D+00
 -0.68223942D-02 -0.31444352D-02  0.88173247D-02  0.18752410D-03  0.14378159D-03
  0.71757088D-04  0.19597969D-03  0.15026480D-03  0.74992666D-04  0.20174391D-07
  0.15468443D-07  0.77198374D-08 -0.87425189D-03 -0.12683298D-03 -0.16786448D-03
 -0.24319432D-07  0.35946970D-03  0.22788496D-05  0.65685105D-04  0.24824572D-07
 -0.35850747D-02 -0.34239022D-02 -0.35428647D-02 -0.76500652D-04  0.35184232D-07
  0.26695781D-07 -0.12370289D+00 -0.22820768D+00 -0.36839796D+00 -0.47954468D+00
 -0.40919634D+00 -0.14128566D+00  0.46299398D-02  0.21339350D-02 -0.59837765D-02
 -0.85227115D-04 -0.65346746D-04 -0.32612606D-04  0.29634302D-03  0.22721703D-03
  0.11339722D-03 -0.11577139D-07 -0.88766158D-08 -0.44300534D-08  0.59430855D-03
  0.49201184D-04 -0.23295435D-03  0.12924738D-07 -0.24575218D-03  0.13286883D-04
  0.61680753D-04 -0.20504276D-07  0.24076836D-02  0.23483320D-02  0.24044133D-02
 -0.18293767D-03 -0.52247632D-07 -0.74451312D-08 -0.30525576D+00 -0.56313727D+00
 -0.90907817D+00 -0.11833497D+01 -0.10097544D+01 -0.34864393D+00  0.11424285D-01
  0.52654423D-02 -0.14764850D-01 -0.36211327D-04 -0.27764549D-04 -0.13856456D-04
  0.91980852D-05  0.70525084D-05  0.35196959D-05  0.61842353D-07  0.47416794D-07
  0.23664303D-07  0.14558062D-02  0.18857330D-04 -0.43585861D-04 -0.38219587D-07
 -0.59095284D-03  0.10874211D-04  0.72141439D-04  0.24827584D-07  0.59278741D-02
  0.58126052D-02  0.59339159D-02 -0.34673828D-04  0.23637676D-07  0.34736490D-07
 -0.18273373D+00 -0.33710805D+00 -0.54419692D+00 -0.70838270D+00 -0.60446424D+00
 -0.20870698D+00  0.68393520D-02  0.31522511D-02 -0.88392411D-02  0.18728513D-03
  0.14359836D-03  0.71665647D-04  0.19586536D-03  0.15017713D-03  0.74948915D-04
 -0.40146857D-07 -0.30782064D-07 -0.15362407D-07  0.87655676D-03 -0.12658985D-03
 -0.16776813D-03  0.27894368D-07 -0.36104304D-03  0.21214640D-05  0.65704129D-04
 -0.23667558D-07  0.35937622D-02  0.34325275D-02  0.35518940D-02  0.76925071D-04
  0.53718659D-07  0.72670403D-08 -0.13330523D-04 -0.22611089D-04 -0.25741926D-04
  0.56792291D-04 -0.81677823D-04 -0.10861206D-04  0.54291699D-08 -0.32917465D-04
 -0.55834251D-04 -0.63565322D-04  0.14217294D-03 -0.49723524D-04 -0.19533645D-03
 -0.22478379D-07 -0.19703627D-04 -0.33421081D-04 -0.38048719D-04  0.84215814D-04
  0.94265048D-04 -0.75722880D-04  0.92377538D-08  0.13408450D-04  0.22743269D-04
  0.25892408D-04 -0.57044551D-04 -0.81948379D-04 -0.11026286D-04 -0.10290000D-07
  0.32922225D-04  0.55842325D-04  0.63574514D-04 -0.14242836D-03 -0.49699195D-04
 -0.19497419D-03  0.32749448D-07  0.19788630D-04  0.33565262D-04  0.38212865D-04
 -0.84506369D-04  0.94504235D-04 -0.75978598D-04 -0.18752607D-07
MO    4     MO 0.0        OCC NO =    2.0000000  ORB. ENERGY =  -10.197976
  0.28077759D+00  0.51797983D+00  0.83618005D+00  0.10884580D+01  0.92878317D+00
  0.32068651D+00 -0.10578060D-01 -0.48754181D-02  0.13671181D-01  0.17695088D-03
  0.13567471D-03  0.67711189D-04  0.14453502D-03  0.11082029D-03  0.55307091D-04
 -0.27675147D-07 -0.21219547D-07 -0.10590041D-07 -0.20810815D-02 -0.31864697D-03
 -0.17581814D-03  0.25628175D-08  0.22366553D-02  0.16472491D-03  0.86607491D-04
 -0.19730766D-08 -0.51548324D-02 -0.49883559D-02 -0.54621360D-02  0.52231000D-04
  0.59315923D-07 -0.31199913D-07 -0.31510750D-01 -0.58131180D-01 -0.93841749D-01
 -0.12215407D+00 -0.10423429D+00 -0.35989596D-01  0.11873851D-02  0.54726471D-03
 -0.15345874D-02  0.20514921D-03  0.15729541D-03  0.78501432D-04 -0.74948783D-04
 -0.57465973D-04 -0.28679548D-04 -0.85531741D-08 -0.65580314D-08 -0.32729173D-08
  0.23685127D-03 -0.17926310D-03  0.87011067D-04 -0.88760325D-09 -0.25455448D-03
  0.83230318D-04 -0.41921370D-04 -0.57174050D-09  0.63829232D-03  0.49954987D-03
  0.61267556D-03  0.29100284D-03 -0.89341130D-07  0.35731236D-07 -0.24902183D+00
 -0.45939665D+00 -0.74160864D+00 -0.96535410D+00 -0.82373840D+00 -0.28441707D+00
  0.93807504D-02  0.43235793D-02 -0.12123768D-01  0.45567500D-04  0.34938269D-04
  0.17436645D-04 -0.22062223D-03 -0.16915913D-03 -0.84422263D-04 -0.44922774D-07
 -0.34443934D-07 -0.17189937D-07  0.18374080D-02 -0.14469550D-03  0.29796682D-03
  0.34301619D-07 -0.19735328D-02  0.79047105D-04 -0.14997663D-03 -0.16470392D-07
  0.45952688D-02  0.44023378D-02  0.48451287D-02 -0.92594978D-04  0.16918389D-07
 -0.71313409D-07  0.28008640D+00  0.51670473D+00  0.83412164D+00  0.10857785D+01
  0.92649679D+00  0.31989708D+00 -0.10551138D-01 -0.48630100D-02  0.13636388D-01
 -0.17609576D-03 -0.13501906D-03 -0.67383975D-04 -0.14373277D-03 -0.11020517D-03
 -0.55000103D-04 -0.92450645D-09 -0.70885291D-09 -0.35376728D-09 -0.20674991D-02
  0.31391499D-03  0.17421171D-03  0.45260130D-08  0.22209663D-02 -0.16359604D-03
 -0.86164210D-04 -0.32440413D-08 -0.51428187D-02 -0.49769290D-02 -0.54494168D-02
  0.51709802D-04 -0.20830063D-07  0.44545756D-07 -0.30842994D-01 -0.56899302D-01
 -0.91853116D-01 -0.11956546D+00 -0.10202543D+00 -0.35226928D-01  0.11615227D-02
  0.53534475D-03 -0.15011626D-02 -0.20548306D-03 -0.15755137D-03 -0.78629178D-04
  0.74247764D-04  0.56928476D-04  0.28411299D-04 -0.65455776D-08 -0.50187337D-08
 -0.25046999D-08  0.22379017D-03  0.18052713D-03 -0.82303158D-04  0.48784795D-10
 -0.23989324D-03 -0.83542304D-04  0.40783972D-04 -0.10952138D-08  0.62724654D-03
  0.48805645D-03  0.60050659D-03  0.29092177D-03  0.79433732D-07 -0.28129943D-07
 -0.24987936D+00 -0.46097864D+00 -0.74416245D+00 -0.96867840D+00 -0.82657503D+00
 -0.28539650D+00  0.94139270D-02  0.43388703D-02 -0.12166645D-01 -0.46082166D-04
 -0.35332882D-04 -0.17633585D-04  0.22164692D-03  0.16994480D-03  0.84814364D-04
 -0.71059494D-07 -0.54483913D-07 -0.27191291D-07  0.18518437D-02  0.14822938D-03
 -0.30154550D-03  0.33733876D-07 -0.19896803D-02 -0.79891597D-04  0.15090281D-03
 -0.15716383D-07  0.46104947D-02  0.44169548D-02  0.48610985D-02 -0.92698009D-04
  0.12395979D-07  0.35221568D-07 -0.36039524D-04 -0.61129854D-04 -0.69594178D-04
  0.96364323D-05 -0.30639774D-03 -0.67414953D-04 -0.28484755D-07  0.40984380D-05
  0.69517265D-05  0.79142949D-05 -0.60834611D-06  0.56362207D-04  0.22247227D-04
  0.56273118D-08  0.31845218D-04  0.54015517D-04  0.61494757D-04 -0.98592529D-05
 -0.22006760D-03  0.17131338D-03  0.15262356D-07 -0.35816799D-04 -0.60752070D-04
 -0.69164085D-04  0.10917205D-04  0.30542399D-03  0.67192169D-04  0.42926490D-08
  0.38985504D-05  0.66126794D-05  0.75283017D-05 -0.18277953D-05 -0.56171734D-04
 -0.21444466D-04  0.80683752D-08  0.32088386D-04  0.54427976D-04  0.61964327D-04
 -0.86479156D-05  0.22091130D-03 -0.17206207D-03 -0.21674176D-07
MO    5     MO 0.0        OCC NO =    2.0000000  ORB. ENERGY =  -10.197975
 -0.12575336D+00 -0.23199039D+00 -0.37450441D+00 -0.48749347D+00 -0.41597906D+00
 -0.14362757D+00  0.47377638D-02  0.21836310D-02 -0.61231293D-02 -0.14589882D-03
 -0.11186596D-03 -0.55828954D-04  0.16463624D-03  0.12623263D-03  0.62998927D-04
 -0.21662781D-07 -0.16609646D-07 -0.82893777D-08  0.93301393D-03  0.20266210D-03
 -0.12710047D-03  0.75685916D-08 -0.10038057D-02 -0.10169945D-03  0.57177005D-04
 -0.56717876D-08  0.22137806D-02  0.23281275D-02  0.24462354D-02  0.27679379D-03
 -0.71441684D-08  0.25690382D-07  0.30611514D+00  0.56472267D+00  0.91163748D+00
  0.11866811D+01  0.10125972D+01  0.34962546D+00 -0.11532167D-01 -0.53151652D-02
  0.14904278D-01  0.76872080D-04  0.58940635D-04  0.29415508D-04  0.21662092D-03
  0.16609118D-03  0.82891141D-04 -0.67868924D-07 -0.52037586D-07 -0.25970403D-07
 -0.22653527D-02 -0.11199215D-03 -0.36928693D-03  0.44578163D-07  0.24338671D-02
  0.56656883D-04  0.19036407D-03 -0.22209540D-07 -0.54675416D-02 -0.55919218D-02
 -0.59554762D-02 -0.27695368D-04 -0.38958412D-07 -0.76195849D-08 -0.18024997D+00
 -0.33252600D+00 -0.53680007D+00 -0.69875420D+00 -0.59624822D+00 -0.20587018D+00
  0.67907544D-02  0.31298525D-02 -0.87764330D-02  0.22004135D-03  0.16871375D-03
  0.84199984D-04  0.34323557D-04  0.26317126D-04  0.13134091D-04 -0.51022179D-07
 -0.39120571D-07 -0.19523907D-07  0.13347193D-02 -0.27397768D-03  0.42869292D-04
  0.29788330D-07 -0.14337761D-02  0.13560893D-03 -0.27584465D-04 -0.15516189D-07
  0.31261777D-02  0.33860501D-02  0.35065284D-02 -0.82657260D-04  0.91752689D-07
  0.48930879D-07 -0.12589220D+00 -0.23224652D+00 -0.37491790D+00 -0.48803170D+00
 -0.41643834D+00 -0.14378615D+00  0.47426733D-02  0.21858938D-02 -0.61294743D-02
  0.14593732D-03  0.11189548D-03  0.55843686D-04 -0.16554193D-03 -0.12692705D-03
 -0.63345494D-04 -0.32353971D-07 -0.24806973D-07 -0.12380418D-07  0.92974378D-03
 -0.20098634D-03  0.12820232D-03  0.60930710D-08 -0.99889976D-03  0.10137949D-03
 -0.57440987D-04 -0.46792893D-08  0.22167381D-02  0.23318235D-02  0.24493123D-02
  0.27718171D-03 -0.16214445D-07 -0.20567442D-07  0.30613481D+00  0.56475894D+00
  0.91169605D+00  0.11867574D+01  0.10126622D+01  0.34964792D+00 -0.11532487D-01
 -0.53153129D-02  0.14904692D-01 -0.75588551D-04 -0.57956506D-04 -0.28924359D-04
 -0.21651034D-03 -0.16600640D-03 -0.82848828D-04 -0.94599361D-07 -0.72532790D-07
 -0.36198945D-07 -0.22612202D-02  0.11079335D-03  0.36750674D-03  0.41551342D-07
  0.24280178D-02 -0.56325069D-04 -0.19000730D-03 -0.20373350D-07 -0.54689485D-02
 -0.55925860D-02 -0.59561682D-02 -0.28647898D-04  0.29993884D-07 -0.28797490D-07
 -0.17917154D+00 -0.33053650D+00 -0.53358840D+00 -0.69457355D+00 -0.59268087D+00
 -0.20463846D+00  0.67498608D-02  0.31110047D-02 -0.87235819D-02 -0.21941119D-03
 -0.16823058D-03 -0.83958852D-04 -0.34460950D-04 -0.26422471D-04 -0.13186665D-04
 -0.68945914D-07 -0.52863353D-07 -0.26382518D-07  0.13251295D-02  0.27228032D-03
 -0.41438468D-04  0.28495642D-07 -0.14252837D-02 -0.13505421D-03  0.27151220D-04
 -0.14608067D-07  0.31063247D-02  0.33657139D-02  0.34858039D-02 -0.82954801D-04
 -0.60416861D-07 -0.65796923D-07  0.16125240D-04  0.27351459D-04  0.31138669D-04
 -0.41036899D-05  0.12227644D-03  0.82481018D-04  0.20548091D-07 -0.39264392D-04
 -0.66599841D-04 -0.75821565D-04  0.11114557D-04 -0.76849474D-04 -0.33237321D-03
 -0.16280978D-07  0.23108866D-04  0.39197010D-04  0.44624410D-04 -0.63375937D-05
 -0.11692973D-03  0.16828813D-03  0.15283750D-07  0.16095954D-04  0.27301784D-04
  0.31082116D-04 -0.47714994D-05 -0.12224873D-03 -0.82522430D-04  0.62734779D-08
 -0.39206987D-04 -0.66502470D-04 -0.75710712D-04  0.11780421D-04  0.76879953D-04
  0.33215131D-03 -0.45189250D-07  0.22920033D-04  0.38876713D-04  0.44259764D-04
 -0.65281103D-05  0.11623029D-03 -0.16756968D-03 -0.10954430D-07
MO    6     MO 0.0        OCC NO =    2.0000000  ORB. ENERGY =  -10.197711
  0.21678605D+00  0.39992792D+00  0.64560767D+00  0.84038936D+00  0.71710577D+00
  0.24759939D+00 -0.84095991D-02 -0.38759766D-02  0.10868643D-01  0.26975903D-03
  0.20683412D-03  0.10322472D-03  0.77897444D-04  0.59726819D-04  0.29807869D-04
  0.40116925D-08  0.30759114D-08  0.15350954D-08 -0.40215043D-02 -0.13999389D-02
 -0.40496319D-03 -0.19456235D-07  0.45515391D-02  0.34206900D-03  0.98880652D-04
 -0.33847660D-08 -0.37394872D-02 -0.36765663D-02 -0.39979350D-02 -0.39743779D-04
  0.66086406D-07 -0.71330052D-07 -0.21754022D+00 -0.40131923D+00 -0.64785367D+00
 -0.84331298D+00 -0.71960049D+00 -0.24846076D+00  0.84379595D-02  0.38890478D-02
 -0.10905296D-01 -0.68006265D-04 -0.52142891D-04 -0.26022957D-04 -0.27273482D-03
 -0.20911576D-03 -0.10436342D-03  0.11490632D-07  0.88102880D-08  0.43969512D-08
  0.40261283D-02  0.35013683D-03  0.14150769D-02 -0.11215315D-06 -0.45548293D-02
 -0.85570107D-04 -0.34595934D-03  0.42757396D-07  0.36890558D-02  0.37552738D-02
  0.40125790D-02  0.33950068D-04  0.20677786D-07 -0.10808402D-06  0.21775856D+00
  0.40172202D+00  0.64850390D+00  0.84415939D+00  0.72032273D+00  0.24871013D+00
 -0.84462095D-02 -0.38928503D-02  0.10915958D-01 -0.20304932D-03 -0.15568534D-03
 -0.77697894D-04  0.19485720D-03  0.14940414D-03  0.74563137D-04  0.31436361D-07
  0.24103408D-07  0.12029290D-07 -0.40284051D-02  0.10515878D-02 -0.10105035D-02
 -0.14131946D-06  0.45585717D-02 -0.25703504D-03  0.24725931D-03  0.33366437D-07
 -0.37272318D-02 -0.37242122D-02 -0.40168647D-02  0.74662256D-04  0.12442215D-07
 -0.70560291D-07 -0.21786002D+00 -0.40190920D+00 -0.64880606D+00 -0.84455272D+00
 -0.72065836D+00 -0.24882601D+00  0.84501154D-02  0.38946505D-02 -0.10921006D-01
  0.27070908D-03  0.20756255D-03  0.10358826D-03  0.77764028D-04  0.59624524D-04
  0.29756816D-04 -0.12546788D-07 -0.96200811D-08 -0.48010947D-08  0.40296747D-02
 -0.14015081D-02 -0.40472878D-03  0.20056657D-08 -0.45605315D-02  0.34276152D-03
  0.99113507D-04  0.66494754D-08  0.37589218D-02  0.36957752D-02  0.40188034D-02
  0.40326482D-04  0.22134277D-07 -0.86282763D-07  0.21813306D+00  0.40241290D+00
  0.64961920D+00  0.84561118D+00  0.72156155D+00  0.24913786D+00 -0.84602563D-02
 -0.38993244D-02  0.10934113D-01 -0.67008357D-04 -0.51377758D-04 -0.25641102D-04
 -0.27335692D-03 -0.20959275D-03 -0.10460147D-03 -0.21370989D-07 -0.16385919D-07
 -0.81777220D-08 -0.40303094D-02  0.34902795D-03  0.14160346D-02  0.95437674D-07
  0.45591152D-02 -0.85386799D-04 -0.34636694D-03 -0.38141501D-07 -0.37001178D-02
 -0.37658036D-02 -0.40241586D-02 -0.35303733D-04  0.10120271D-07 -0.14482102D-06
 -0.21710889D+00 -0.40052351D+00 -0.64656913D+00 -0.84164089D+00 -0.71817370D+00
 -0.24796812D+00  0.84217814D-02  0.38815913D-02 -0.10884387D-01 -0.20295169D-03
 -0.15561048D-03 -0.77660537D-04  0.19438765D-03  0.14904412D-03  0.74383462D-04
 -0.37858182D-07 -0.29027253D-07 -0.14486633D-07  0.40238504D-02  0.10510216D-02
 -0.10100492D-02  0.12257923D-06 -0.45538484D-02 -0.25696780D-03  0.24677035D-03
 -0.32088709D-07  0.37150981D-02  0.37127012D-02  0.40041799D-02 -0.74505465D-04
  0.54086418D-07 -0.11199646D-06 -0.65441574D-04 -0.11100130D-03 -0.12637105D-03
 -0.36230830D-03 -0.27688788D-03 -0.80068472D-04 -0.64599360D-07  0.65516414D-04
  0.11112824D-03  0.12651557D-03  0.36206390D-03  0.69165544D-04  0.28048176D-03
  0.57980941D-07 -0.65563670D-04 -0.11120839D-03 -0.12660683D-03 -0.36220957D-03
  0.20856663D-03 -0.20043078D-03 -0.38313488D-08  0.65576945D-04  0.11123091D-03
  0.12663246D-03  0.36232744D-03 -0.27807266D-03 -0.80430361D-04 -0.10591450D-07
 -0.65597052D-04 -0.11126502D-03 -0.12667129D-03 -0.36199051D-03  0.69494443D-04
  0.28103348D-03 -0.12048119D-06  0.65475447D-04  0.11105875D-03  0.12643646D-03
  0.36228579D-03  0.20798725D-03 -0.20005550D-03 -0.90075481D-07
MO    7     MO 0.0        OCC NO =    2.0000000  ORB. ENERGY =   -0.856993