 Title Card Required
GAUSSIAN              5 MOL ORBITALS     38 PRIMITIVES        5 NUCLEI
  C    1    (CENTRE  1)   0.00000000  0.00000000  0.00000000  CHARGE =  6.0
  H    2    (CENTRE  2)   1.18061411  1.18061411  1.18061411  CHARGE =  1.0
  H    3    (CENTRE  3)  -1.18061411 -1.18061411  1.18061411  CHARGE =  1.0
  H    4    (CENTRE  4)  -1.18061411  1.18061411 -1.18061411  CHARGE =  1.0
  H    5    (CENTRE  5)   1.18061411 -1.18061411 -1.18061411  CHARGE =  1.0
CENTRE ASSIGNMENTS    1  1  1  1  1  1  1  1  1  1  1  1  1  1  1  1  1  1  1  1
CENTRE ASSIGNMENTS    1  1  2  2  2  2  3  3  3  3  4  4  4  4  5  5  5  5
TYPE ASSIGNMENTS      1  1  1  1  1  1  1  1  1  2  2  2  3  3  3  4  4  4  1  2
TYPE ASSIGNMENTS      3  4  1  1  1  1  1  1  1  1  1  1  1  1  1  1  1  1
EXPONENTS  0.3047525D+04 0.4573695D+03 0.1039487D+03 0.2921016D+02 0.9286663D+01
EXPONENTS  0.3163927D+01 0.7868272D+01 0.1881289D+01 0.5442493D+00 0.7868272D+01
EXPONENTS  0.1881289D+01 0.5442493D+00 0.7868272D+01 0.1881289D+01 0.5442493D+00
EXPONENTS  0.7868272D+01 0.1881289D+01 0.5442493D+00 0.1687145D+00 0.1687145D+00
EXPONENTS  0.1687145D+00 0.1687145D+00 0.1873114D+02 0.2825394D+01 0.6401217D+00
EXPONENTS  0.1612778D+00 0.1873114D+02 0.2825394D+01 0.6401217D+00 0.1612778D+00
EXPONENTS  0.1873114D+02 0.2825394D+01 0.6401217D+00 0.1612778D+00 0.1873114D+02
EXPONENTS  0.2825394D+01 0.6401217D+00 0.1612778D+00
MO    1     MO 0.0        OCC NO =    2.0000000  ORB. ENERGY =  -11.203720
  0.53427554D+00  0.98563405D+00  0.15911190D+01  0.20711641D+01  0.17673281D+01
  0.61021592D+00 -0.10210834D-01 -0.47061641D-02  0.13196575D-01  0.00000000D+00
  0.00000000D+00  0.00000000D+00  0.00000000D+00  0.00000000D+00  0.00000000D+00
  0.00000000D+00  0.00000000D+00  0.00000000D+00 -0.31141201D-02  0.00000000D+00
  0.00000000D+00  0.00000000D+00 -0.23383287D-04 -0.39662481D-04 -0.45154332D-04
  0.57108200D-03 -0.23383287D-04 -0.39662481D-04 -0.45154332D-04  0.57108200D-03
 -0.23383287D-04 -0.39662481D-04 -0.45154332D-04  0.57108200D-03 -0.23383287D-04
 -0.39662481D-04 -0.45154332D-04  0.57108200D-03
MO    2     MO 0.0        OCC NO =    2.0000000  ORB. ENERGY =   -0.949079
 -0.10576502D+00 -0.19511580D+00 -0.31497741D+00 -0.41000700D+00 -0.34985971D+00
 -0.12079815D+00 -0.14939406D+00 -0.68855585D-01  0.19307825D+00  0.00000000D+00
  0.00000000D+00  0.00000000D+00  0.00000000D+00  0.00000000D+00  0.00000000D+00
  0.00000000D+00  0.00000000D+00  0.00000000D+00  0.71758777D-01  0.00000000D+00
  0.00000000D+00  0.00000000D+00  0.29019060D-01  0.49221818D-01  0.56037300D-01
  0.59788567D-02  0.29019060D-01  0.49221818D-01  0.56037300D-01  0.59788567D-02
  0.29019060D-01  0.49221818D-01  0.56037300D-01  0.59788567D-02  0.29019060D-01
  0.49221818D-01  0.56037300D-01  0.59788567D-02
MO    3     MO 0.0        OCC NO =    2.0000000  ORB. ENERGY =   -0.545039
  0.00000000D+00  0.00000000D+00  0.00000000D+00  0.00000000D+00  0.00000000D+00
  0.00000000D+00 -0.00000000D+00 -0.00000000D+00  0.00000000D+00  0.56686240D+00
  0.43463413D+00  0.21691289D+00  0.00000000D+00  0.00000000D+00  0.00000000D+00
  0.00000000D+00  0.00000000D+00  0.00000000D+00  0.00000000D+00  0.34109594D-01
  0.00000000D+00  0.00000000D+00  0.37431222D-01  0.63490438D-01  0.72281619D-01
  0.25642200D-01 -0.37431222D-01 -0.63490438D-01 -0.72281619D-01 -0.25642200D-01
 -0.37431222D-01 -0.63490438D-01 -0.72281619D-01 -0.25642200D-01  0.37431222D-01
  0.63490438D-01  0.72281619D-01  0.25642200D-01
MO    4     MO 0.0        OCC NO =    2.0000000  ORB. ENERGY =   -0.545039
  0.00000000D+00  0.00000000D+00  0.00000000D+00  0.00000000D+00  0.00000000D+00
  0.00000000D+00 -0.00000000D+00 -0.00000000D+00  0.00000000D+00  0.00000000D+00
  0.00000000D+00  0.00000000D+00  0.56686240D+00  0.43463413D+00  0.21691289D+00
  0.00000000D+00  0.00000000D+00  0.00000000D+00  0.00000000D+00  0.00000000D+00
  0.34109594D-01  0.00000000D+00  0.37431222D-01  0.63490438D-01  0.72281619D-01
  0.25642200D-01 -0.37431222D-01 -0.63490438D-01 -0.72281619D-01 -0.25642200D-01
  0.37431222D-01  0.63490438D-01  0.72281619D-01  0.25642200D-01 -0.37431222D-01
 -0.63490438D-01 -0.72281619D-01 -0.25642200D-01
MO    5     MO 0.0        OCC NO =    2.0000000  ORB. ENERGY =   -0.545039
  0.00000000D+00  0.00000000D+00  0.00000000D+00  0.00000000D+00  0.00000000D+00
  0.00000000D+00 -0.00000000D+00 -0.00000000D+00  0.00000000D+00  0.00000000D+00
  0.00000000D+00  0.00000000D+00  0.00000000D+00  0.00000000D+00  0.00000000D+00
  0.56686240D+00  0.43463413D+00  0.21691289D+00  0.00000000D+00  0.00000000D+00
  0.00000000D+00  0.34109594D-01  0.37431222D-01  0.63490438D-01  0.72281619D-01
  0.25642200D-01  0.37431222D-01  0.63490438D-01  0.72281619D-01  0.25642200D-01
 -0.37431222D-01 -0.63490438D-01 -0.72281619D-01 -0.25642200D-01 -0.37431222D-01
 -0.63490438D-01 -0.72281619D-01 -0.25642200D-01
END DATA
 TOTAL ENERGY =      -40.180554171581 THE VIRIAL(-V/T)=   1.99816987
