 Title Card Required
GAUSSIAN             44 MOL ORBITALS    326 PRIMITIVES       23 NUCLEI
  H    1    (CENTRE  1)  -0.00006673  4.67197868 -1.65283251  CHARGE =  1.0
  C    2    (CENTRE  2)   5.67760625 -2.27559613 -0.00027262  CHARGE =  6.0
  C    3    (CENTRE  3)   6.51172741  0.21376334 -0.00027794  CHARGE =  6.0
  C    4    (CENTRE  4)   4.78684095  2.20010576 -0.00017342  CHARGE =  6.0
  C    5    (CENTRE  5)   2.23266364  1.66045763 -0.00006281  CHARGE =  6.0
  C    6    (CENTRE  6)   1.39209445 -0.84629867 -0.00006230  CHARGE =  6.0
  C    7    (CENTRE  7)   3.10865882 -2.82329262 -0.00016587  CHARGE =  6.0
  H    8    (CENTRE  8)   7.02808886 -3.78885649 -0.00036181  CHARGE =  1.0
  H    9    (CENTRE  9)   8.50105344  0.60917180 -0.00035159  CHARGE =  1.0
  H   10    (CENTRE 10)   5.44649794  4.11988205 -0.00017724  CHARGE =  1.0
  H   11    (CENTRE 11)   2.48010924 -4.75217097 -0.00015049  CHARGE =  1.0
  C   12    (CENTRE 12)  -0.00000015  3.45506182  0.00005528  CHARGE =  6.0
  H   13    (CENTRE 13)   0.00006657  4.67193505  1.65297523  CHARGE =  1.0
  C   14    (CENTRE 14)  -2.23266402  1.66045767  0.00011905  CHARGE =  6.0
  C   15    (CENTRE 15)  -4.78684121  2.20010543  0.00023138  CHARGE =  6.0
  C   16    (CENTRE 16)  -6.51172753  0.21376329  0.00025493  CHARGE =  6.0
  C   17    (CENTRE 17)  -5.67760588 -2.27559664  0.00021133  CHARGE =  6.0
  C   18    (CENTRE 18)  -3.10865890 -2.82329283  0.00009142  CHARGE =  6.0
  C   19    (CENTRE 19)  -1.39209421 -0.84629920  0.00005305  CHARGE =  6.0
  H   20    (CENTRE 20)  -5.44649846  4.11988184  0.00027412  CHARGE =  1.0
  H   21    (CENTRE 21)  -8.50105335  0.60917244  0.00035732  CHARGE =  1.0
  H   22    (CENTRE 22)  -7.02808853 -3.78885663  0.00022194  CHARGE =  1.0
  H   23    (CENTRE 23)  -2.48010666 -4.75217084  0.00003617  CHARGE =  1.0
CENTRE ASSIGNMENTS    1  1  1  1  2  2  2  2  2  2  2  2  2  2  2  2  2  2  2  2
CENTRE ASSIGNMENTS    2  2  2  2  2  2  3  3  3  3  3  3  3  3  3  3  3  3  3  3
CENTRE ASSIGNMENTS    3  3  3  3  3  3  3  3  4  4  4  4  4  4  4  4  4  4  4  4
CENTRE ASSIGNMENTS    4  4  4  4  4  4  4  4  4  4  5  5  5  5  5  5  5  5  5  5
CENTRE ASSIGNMENTS    5  5  5  5  5  5  5  5  5  5  5  5  6  6  6  6  6  6  6  6
CENTRE ASSIGNMENTS    6  6  6  6  6  6  6  6  6  6  6  6  6  6  7  7  7  7  7  7
CENTRE ASSIGNMENTS    7  7  7  7  7  7  7  7  7  7  7  7  7  7  7  7  8  8  8  8
CENTRE ASSIGNMENTS    9  9  9  9 10 10 10 10 11 11 11 11 12 12 12 12 12 12 12 12
CENTRE ASSIGNMENTS   12 12 12 12 12 12 12 12 12 12 12 12 12 12 13 13 13 13 14 14
CENTRE ASSIGNMENTS   14 14 14 14 14 14 14 14 14 14 14 14 14 14 14 14 14 14 14 14
CENTRE ASSIGNMENTS   15 15 15 15 15 15 15 15 15 15 15 15 15 15 15 15 15 15 15 15
CENTRE ASSIGNMENTS   15 15 16 16 16 16 16 16 16 16 16 16 16 16 16 16 16 16 16 16
CENTRE ASSIGNMENTS   16 16 16 16 17 17 17 17 17 17 17 17 17 17 17 17 17 17 17 17
CENTRE ASSIGNMENTS   17 17 17 17 17 17 18 18 18 18 18 18 18 18 18 18 18 18 18 18
CENTRE ASSIGNMENTS   18 18 18 18 18 18 18 18 19 19 19 19 19 19 19 19 19 19 19 19
CENTRE ASSIGNMENTS   19 19 19 19 19 19 19 19 19 19 20 20 20 20 21 21 21 21 22 22
CENTRE ASSIGNMENTS   22 22 23 23 23 23
TYPE ASSIGNMENTS      1  1  1  1  1  1  1  1  1  1  1  1  1  2  2  2  3  3  3  4
TYPE ASSIGNMENTS      4  4  1  2  3  4  1  1  1  1  1  1  1  1  1  2  2  2  3  3
TYPE ASSIGNMENTS      3  4  4  4  1  2  3  4  1  1  1  1  1  1  1  1  1  2  2  2
TYPE ASSIGNMENTS      3  3  3  4  4  4  1  2  3  4  1  1  1  1  1  1  1  1  1  2
TYPE ASSIGNMENTS      2  2  3  3  3  4  4  4  1  2  3  4  1  1  1  1  1  1  1  1
TYPE ASSIGNMENTS      1  2  2  2  3  3  3  4  4  4  1  2  3  4  1  1  1  1  1  1
TYPE ASSIGNMENTS      1  1  1  2  2  2  3  3  3  4  4  4  1  2  3  4  1  1  1  1
TYPE ASSIGNMENTS      1  1  1  1  1  1  1  1  1  1  1  1  1  1  1  1  1  1  1  1
TYPE ASSIGNMENTS      1  2  2  2  3  3  3  4  4  4  1  2  3  4  1  1  1  1  1  1
TYPE ASSIGNMENTS      1  1  1  1  1  1  1  2  2  2  3  3  3  4  4  4  1  2  3  4
TYPE ASSIGNMENTS      1  1  1  1  1  1  1  1  1  2  2  2  3  3  3  4  4  4  1  2
TYPE ASSIGNMENTS      3  4  1  1  1  1  1  1  1  1  1  2  2  2  3  3  3  4  4  4
TYPE ASSIGNMENTS      1  2  3  4  1  1  1  1  1  1  1  1  1  2  2  2  3  3  3  4
TYPE ASSIGNMENTS      4  4  1  2  3  4  1  1  1  1  1  1  1  1  1  2  2  2  3  3
TYPE ASSIGNMENTS      3  4  4  4  1  2  3  4  1  1  1  1  1  1  1  1  1  2  2  2
TYPE ASSIGNMENTS      3  3  3  4  4  4  1  2  3  4  1  1  1  1  1  1  1  1  1  1
TYPE ASSIGNMENTS      1  1  1  1  1  1
EXPONENTS  0.1873114D+02 0.2825394D+01 0.6401217D+00 0.1612778D+00 0.3047525D+04
EXPONENTS  0.4573695D+03 0.1039487D+03 0.2921016D+02 0.9286663D+01 0.3163927D+01
EXPONENTS  0.7868272D+01 0.1881289D+01 0.5442493D+00 0.7868272D+01 0.1881289D+01
EXPONENTS  0.5442493D+00 0.7868272D+01 0.1881289D+01 0.5442493D+00 0.7868272D+01
EXPONENTS  0.1881289D+01 0.5442493D+00 0.1687145D+00 0.1687145D+00 0.1687145D+00
EXPONENTS  0.1687145D+00 0.3047525D+04 0.4573695D+03 0.1039487D+03 0.2921016D+02
EXPONENTS  0.9286663D+01 0.3163927D+01 0.7868272D+01 0.1881289D+01 0.5442493D+00
EXPONENTS  0.7868272D+01 0.1881289D+01 0.5442493D+00 0.7868272D+01 0.1881289D+01
EXPONENTS  0.5442493D+00 0.7868272D+01 0.1881289D+01 0.5442493D+00 0.1687145D+00
EXPONENTS  0.1687145D+00 0.1687145D+00 0.1687145D+00 0.3047525D+04 0.4573695D+03
EXPONENTS  0.1039487D+03 0.2921016D+02 0.9286663D+01 0.3163927D+01 0.7868272D+01
EXPONENTS  0.1881289D+01 0.5442493D+00 0.7868272D+01 0.1881289D+01 0.5442493D+00
EXPONENTS  0.7868272D+01 0.1881289D+01 0.5442493D+00 0.7868272D+01 0.1881289D+01
EXPONENTS  0.5442493D+00 0.1687145D+00 0.1687145D+00 0.1687145D+00 0.1687145D+00
EXPONENTS  0.3047525D+04 0.4573695D+03 0.1039487D+03 0.2921016D+02 0.9286663D+01
EXPONENTS  0.3163927D+01 0.7868272D+01 0.1881289D+01 0.5442493D+00 0.7868272D+01
EXPONENTS  0.1881289D+01 0.5442493D+00 0.7868272D+01 0.1881289D+01 0.5442493D+00
EXPONENTS  0.7868272D+01 0.1881289D+01 0.5442493D+00 0.1687145D+00 0.1687145D+00
EXPONENTS  0.1687145D+00 0.1687145D+00 0.3047525D+04 0.4573695D+03 0.1039487D+03
EXPONENTS  0.2921016D+02 0.9286663D+01 0.3163927D+01 0.7868272D+01 0.1881289D+01
EXPONENTS  0.5442493D+00 0.7868272D+01 0.1881289D+01 0.5442493D+00 0.7868272D+01
EXPONENTS  0.1881289D+01 0.5442493D+00 0.7868272D+01 0.1881289D+01 0.5442493D+00
EXPONENTS  0.1687145D+00 0.1687145D+00 0.1687145D+00 0.1687145D+00 0.3047525D+04
EXPONENTS  0.4573695D+03 0.1039487D+03 0.2921016D+02 0.9286663D+01 0.3163927D+01
EXPONENTS  0.7868272D+01 0.1881289D+01 0.5442493D+00 0.7868272D+01 0.1881289D+01
EXPONENTS  0.5442493D+00 0.7868272D+01 0.1881289D+01 0.5442493D+00 0.7868272D+01
EXPONENTS  0.1881289D+01 0.5442493D+00 0.1687145D+00 0.1687145D+00 0.1687145D+00
EXPONENTS  0.1687145D+00 0.1873114D+02 0.2825394D+01 0.6401217D+00 0.1612778D+00
EXPONENTS  0.1873114D+02 0.2825394D+01 0.6401217D+00 0.1612778D+00 0.1873114D+02
EXPONENTS  0.2825394D+01 0.6401217D+00 0.1612778D+00 0.1873114D+02 0.2825394D+01
EXPONENTS  0.6401217D+00 0.1612778D+00 0.3047525D+04 0.4573695D+03 0.1039487D+03
EXPONENTS  0.2921016D+02 0.9286663D+01 0.3163927D+01 0.7868272D+01 0.1881289D+01
EXPONENTS  0.5442493D+00 0.7868272D+01 0.1881289D+01 0.5442493D+00 0.7868272D+01
EXPONENTS  0.1881289D+01 0.5442493D+00 0.7868272D+01 0.1881289D+01 0.5442493D+00
EXPONENTS  0.1687145D+00 0.1687145D+00 0.1687145D+00 0.1687145D+00 0.1873114D+02
EXPONENTS  0.2825394D+01 0.6401217D+00 0.1612778D+00 0.3047525D+04 0.4573695D+03
EXPONENTS  0.1039487D+03 0.2921016D+02 0.9286663D+01 0.3163927D+01 0.7868272D+01
EXPONENTS  0.1881289D+01 0.5442493D+00 0.7868272D+01 0.1881289D+01 0.5442493D+00
EXPONENTS  0.7868272D+01 0.1881289D+01 0.5442493D+00 0.7868272D+01 0.1881289D+01
EXPONENTS  0.5442493D+00 0.1687145D+00 0.1687145D+00 0.1687145D+00 0.1687145D+00
EXPONENTS  0.3047525D+04 0.4573695D+03 0.1039487D+03 0.2921016D+02 0.9286663D+01
EXPONENTS  0.3163927D+01 0.7868272D+01 0.1881289D+01 0.5442493D+00 0.7868272D+01
EXPONENTS  0.1881289D+01 0.5442493D+00 0.7868272D+01 0.1881289D+01 0.5442493D+00
EXPONENTS  0.7868272D+01 0.1881289D+01 0.5442493D+00 0.1687145D+00 0.1687145D+00
EXPONENTS  0.1687145D+00 0.1687145D+00 0.3047525D+04 0.4573695D+03 0.1039487D+03
EXPONENTS  0.2921016D+02 0.9286663D+01 0.3163927D+01 0.7868272D+01 0.1881289D+01
EXPONENTS  0.5442493D+00 0.7868272D+01 0.1881289D+01 0.5442493D+00 0.7868272D+01
EXPONENTS  0.1881289D+01 0.5442493D+00 0.7868272D+01 0.1881289D+01 0.5442493D+00
EXPONENTS  0.1687145D+00 0.1687145D+00 0.1687145D+00 0.1687145D+00 0.3047525D+04
EXPONENTS  0.4573695D+03 0.1039487D+03 0.2921016D+02 0.9286663D+01 0.3163927D+01
EXPONENTS  0.7868272D+01 0.1881289D+01 0.5442493D+00 0.7868272D+01 0.1881289D+01
EXPONENTS  0.5442493D+00 0.7868272D+01 0.1881289D+01 0.5442493D+00 0.7868272D+01
EXPONENTS  0.1881289D+01 0.5442493D+00 0.1687145D+00 0.1687145D+00 0.1687145D+00
EXPONENTS  0.1687145D+00 0.3047525D+04 0.4573695D+03 0.1039487D+03 0.2921016D+02
EXPONENTS  0.9286663D+01 0.3163927D+01 0.7868272D+01 0.1881289D+01 0.5442493D+00
EXPONENTS  0.7868272D+01 0.1881289D+01 0.5442493D+00 0.7868272D+01 0.1881289D+01
EXPONENTS  0.5442493D+00 0.7868272D+01 0.1881289D+01 0.5442493D+00 0.1687145D+00
EXPONENTS  0.1687145D+00 0.1687145D+00 0.1687145D+00 0.3047525D+04 0.4573695D+03
EXPONENTS  0.1039487D+03 0.2921016D+02 0.9286663D+01 0.3163927D+01 0.7868272D+01
EXPONENTS  0.1881289D+01 0.5442493D+00 0.7868272D+01 0.1881289D+01 0.5442493D+00
EXPONENTS  0.7868272D+01 0.1881289D+01 0.5442493D+00 0.7868272D+01 0.1881289D+01
EXPONENTS  0.5442493D+00 0.1687145D+00 0.1687145D+00 0.1687145D+00 0.1687145D+00
EXPONENTS  0.1873114D+02 0.2825394D+01 0.6401217D+00 0.1612778D+00 0.1873114D+02
EXPONENTS  0.2825394D+01 0.6401217D+00 0.1612778D+00 0.1873114D+02 0.2825394D+01
EXPONENTS  0.6401217D+00 0.1612778D+00 0.1873114D+02 0.2825394D+01 0.6401217D+00
EXPONENTS  0.1612778D+00
MO    1     MO 0.0        OCC NO =    2.0000000  ORB. ENERGY =  -11.241274
 -0.42346735D-04 -0.71828077D-04 -0.81773727D-04  0.19831301D-03  0.78235844D-03
  0.14432985D-02  0.23299314D-02  0.30328784D-02  0.25879606D-02  0.89356060D-03
  0.65421311D-04  0.30152623D-04 -0.84551101D-04  0.30462249D-04  0.23356520D-04
  0.11656541D-04 -0.31661080D-04 -0.24275708D-04 -0.12115280D-04 -0.19541130D-08
 -0.14982899D-08 -0.74775166D-09  0.31164196D-03 -0.12226468D-03  0.64287951D-04
  0.62497724D-08  0.20445308D-02  0.37717601D-02  0.60887903D-02  0.79257959D-02
  0.67630960D-02  0.23351345D-02  0.34349109D-05  0.15831473D-05 -0.44393102D-05
  0.59086840D-04  0.45304041D-04  0.22609892D-04 -0.44116257D-04 -0.33825548D-04
 -0.16881319D-04 -0.32525008D-08 -0.24938113D-08 -0.12445866D-08 -0.81974937D-04
  0.55795498D-04  0.56910308D-04 -0.16269168D-08  0.30808342D-01  0.56835376D-01
  0.91749919D-01  0.11943113D+00  0.10191080D+00  0.35187351D-01 -0.33119229D-03
 -0.15264623D-03  0.42803595D-03  0.21875510D-03  0.16772753D-03  0.83707794D-04
  0.12314220D-04  0.94417627D-05  0.47121013D-05 -0.10109761D-07 -0.77515233D-08
 -0.38685534D-08  0.54741013D-03 -0.28429593D-03 -0.84883597D-04  0.11469417D-07
  0.33475026D+00  0.61754887D+00  0.99691536D+00  0.12976876D+01  0.11073192D+01
  0.38233070D+00 -0.62601799D-02 -0.28853112D-02  0.80907138D-02  0.23142296D-04
  0.17744045D-04  0.88555221D-05 -0.72332542D-04 -0.55460005D-04 -0.27678430D-04
 -0.57515248D-08 -0.44099044D-08 -0.22008514D-08 -0.22112120D-02 -0.43986567D-05
  0.83694173D-04  0.31746059D-08  0.16796074D+00  0.30985477D+00  0.50020168D+00
  0.65111396D+00  0.55559672D+00  0.19183420D+00 -0.28222739D-02 -0.13007834D-02
  0.36475325D-02  0.57130221D-04  0.43803830D-04  0.21861181D-04 -0.16608459D-03
 -0.12734313D-03 -0.63553146D-04 -0.56244394D-08 -0.43124634D-08 -0.21522215D-08
  0.10254263D-03  0.85090892D-04  0.29634093D-03 -0.21790225D-09  0.16583302D-01
  0.30592955D-01  0.49386515D-01  0.64286568D-01  0.54855845D-01  0.18940405D-01
 -0.19794032D-03 -0.91230512D-04  0.25581988D-03  0.18814987D-03  0.14426139D-03
  0.71996544D-04 -0.97825884D-04 -0.75006683D-04 -0.37433592D-04 -0.99815481D-08
 -0.76532179D-08 -0.38194921D-08 -0.15281768D-04 -0.21837727D-03 -0.53595329D-04
  0.94432579D-08  0.36418889D-05  0.61773328D-05  0.70326751D-05  0.49932349D-04
 -0.38788361D-05 -0.65792402D-05 -0.74902325D-05 -0.70418538D-06 -0.22971738D-04
 -0.38964415D-04 -0.44359610D-04  0.50664526D-04 -0.24652513D-04 -0.41815328D-04
 -0.47605272D-04 -0.39247214D-04  0.48331244D-01  0.89161708D-01  0.14393464D+00
  0.18736014D+00  0.15987475D+00  0.55200908D-01 -0.72281942D-03 -0.33314681D-03
  0.93417843D-03  0.35452178D-08  0.27182482D-08  0.13565963D-08  0.31844461D-03
  0.24416313D-03  0.12185452D-03  0.36440479D-08  0.27940248D-08  0.13944142D-08
  0.48112360D-03 -0.59657814D-08 -0.37858119D-03 -0.46809148D-08 -0.42347078D-04
 -0.71828659D-04 -0.81774390D-04  0.19831242D-03  0.33476820D+00  0.61758197D+00
  0.99696879D+00  0.12977571D+01  0.11073785D+01  0.38235119D+00 -0.62605176D-02
 -0.28854668D-02  0.80911502D-02 -0.23141723D-04 -0.17743605D-04 -0.88553025D-05
 -0.72337679D-04 -0.55463944D-04 -0.27680395D-04  0.71272121D-08  0.54646942D-08
  0.27272654D-08 -0.22113293D-02  0.43962637D-05  0.83705966D-04 -0.17459223D-08
  0.30809873D-01  0.56838200D-01  0.91754478D-01  0.11943707D+00  0.10191587D+00
  0.35189099D-01 -0.33120805D-03 -0.15265349D-03  0.42805631D-03 -0.21876666D-03
 -0.16773640D-03 -0.83712219D-04  0.12318165D-04  0.94447878D-05  0.47136111D-05
  0.71459681D-08  0.54790751D-08  0.27344425D-08  0.54743744D-03  0.28430526D-03
 -0.84892180D-04 -0.11453165D-07  0.20446391D-02  0.37719598D-02  0.60891127D-02
  0.79262155D-02  0.67634540D-02  0.23352581D-02  0.34340600D-05  0.15827551D-05
 -0.44382106D-05 -0.59089940D-04 -0.45306418D-04 -0.22611078D-04 -0.44120464D-04
 -0.33828773D-04 -0.16882929D-04  0.26171832D-08  0.20066901D-08  0.10014790D-08
 -0.81982423D-04 -0.55798632D-04  0.56910232D-04  0.16819866D-08  0.78238137D-03
  0.14433409D-02  0.23299997D-02  0.30329672D-02  0.25880364D-02  0.89358679D-03
  0.65422911D-04  0.30153360D-04 -0.84553169D-04 -0.30465476D-04 -0.23358994D-04
 -0.11657775D-04 -0.31662041D-04 -0.24276445D-04 -0.12115647D-04 -0.52967578D-09
 -0.40612180D-09 -0.20268324D-09  0.31164734D-03  0.12226713D-03  0.64288980D-04
 -0.40348969D-08  0.16583886D-01  0.30594032D-01  0.49388254D-01  0.64288832D-01
  0.54857777D-01  0.18941072D-01 -0.19794702D-03 -0.91233599D-04  0.25582853D-03
 -0.18815095D-03 -0.14426221D-03 -0.71996955D-04 -0.97831026D-04 -0.75010626D-04
 -0.37435559D-04  0.69304168D-08  0.53138040D-08  0.26519606D-08 -0.15273790D-04
  0.21838335D-03 -0.53593055D-04 -0.10605808D-07  0.16796645D+00  0.30986531D+00
  0.50021869D+00  0.65113610D+00  0.55561562D+00  0.19184072D+00 -0.28223729D-02
 -0.13008291D-02  0.36476605D-02 -0.57122427D-04 -0.43797854D-04 -0.21858199D-04
 -0.16609485D-03 -0.12735100D-03 -0.63557072D-04 -0.16673648D-08 -0.12784296D-08
 -0.63802597D-09  0.10254885D-03 -0.85098236D-04  0.29636589D-03  0.86951592D-08
 -0.22972204D-04 -0.38965207D-04 -0.44360510D-04  0.50667618D-04 -0.38787705D-05
 -0.65791288D-05 -0.74901056D-05 -0.70413356D-06  0.36420339D-05  0.61775789D-05
  0.70329552D-05  0.49933452D-04 -0.24652776D-04 -0.41815774D-04 -0.47605780D-04
 -0.39246638D-04
MO    2     MO 0.0        OCC NO =    2.0000000  ORB. ENERGY =  -11.241155
 -0.13004021D-08 -0.22057282D-08 -0.25111435D-08  0.39102470D-08  0.46015955D-03
  0.84890453D-03  0.13703951D-02  0.17838473D-02  0.15221601D-02  0.52556530D-03
  0.30244340D-04  0.13939589D-04 -0.39088062D-04  0.65963341D-04  0.50576506D-04
  0.25241221D-04 -0.18315347D-04 -0.14043047D-04 -0.70084645D-05 -0.29720912D-08
 -0.22788110D-08 -0.11372864D-08  0.89616603D-04 -0.43295831D-04  0.14563047D-04
  0.19633169D-08  0.22865870D-02  0.42183066D-02  0.68096547D-02  0.88641471D-02
  0.75637928D-02  0.26115959D-02 -0.15529820D-04 -0.71576799D-05  0.20070882D-04
  0.63346489D-04  0.48570070D-04  0.24239869D-04 -0.84623554D-04 -0.64883974D-04
 -0.32381650D-04 -0.40163015D-08 -0.30794453D-08 -0.15368590D-08 -0.13277984D-03
  0.53514813D-04 -0.30506264D-05 -0.20835818D-08  0.33305109D-01  0.61441424D-01
  0.99185509D-01  0.12911006D+00  0.11016985D+00  0.38039001D-01 -0.36934036D-03
 -0.17022863D-03  0.47733885D-03  0.22820640D-03  0.17497420D-03  0.87324387D-04
  0.77569017D-04  0.59475002D-04  0.29682194D-04 -0.88926049D-08 -0.68182854D-08
 -0.34028023D-08  0.50513170D-03 -0.17790069D-03 -0.16312560D-03  0.48576755D-08
  0.35668751D+00  0.65801880D+00  0.10622464D+01  0.13827292D+01  0.11798853D+01
  0.40738604D+00 -0.67128123D-02 -0.30939291D-02  0.86757001D-02 -0.22800534D-04
 -0.17482004D-04 -0.87247450D-05 -0.11759975D-03 -0.90168031D-04 -0.45000167D-04
 -0.57968034D-08 -0.44446212D-08 -0.22181775D-08 -0.23098183D-02  0.59960742D-04
  0.23331756D-03  0.34249369D-08  0.11925047D+00  0.21999382D+00  0.35513824D+00
  0.46228447D+00  0.39446818D+00  0.13620038D+00 -0.20811107D-02 -0.95918202D-03
  0.26896465D-02 -0.15687037D-03 -0.12027825D-03 -0.60027275D-04 -0.20244545D-03
 -0.15522233D-03 -0.77466821D-04  0.24483807D-08  0.18772630D-08  0.93688582D-09
  0.83638208D-04  0.13956639D-03  0.49920378D-03  0.10958343D-08  0.12154283D-01
  0.22422278D-01  0.36196509D-01  0.47117100D-01  0.40205107D-01  0.13881857D-01
 -0.13790761D-03 -0.63561493D-04  0.17823306D-03  0.18724822D-04  0.14357006D-04
  0.71651521D-05 -0.10614039D-03 -0.81381719D-04 -0.40615181D-04 -0.22133082D-08
 -0.16970244D-08 -0.84693410D-09  0.18497609D-03 -0.11891457D-03  0.55386921D-04
  0.60735487D-08  0.26036595D-05  0.44162992D-05  0.50278006D-05  0.19841833D-04
  0.16343844D-05  0.27722253D-05  0.31560805D-05  0.37465320D-05 -0.97649327D-05
 -0.16563174D-04 -0.18856588D-04  0.61312130D-04 -0.54115255D-05 -0.91789715D-05
 -0.10449935D-04  0.14542709D-04  0.12150909D-05  0.22416055D-05  0.36186463D-05
  0.47104023D-05  0.40193948D-05  0.13878004D-05 -0.18452790D-07 -0.85048743D-08
  0.23848555D-07 -0.13935748D-03 -0.10685048D-03 -0.53325876D-04  0.78997444D-08
  0.60570229D-08  0.30228789D-08  0.77415029D-08  0.59356934D-08  0.29623270D-08
  0.10838628D-07  0.23574698D-03 -0.90514425D-08 -0.12040645D-07 -0.71878895D-09
 -0.12192021D-08 -0.13880185D-08  0.58975512D-08 -0.35667116D+00 -0.65798864D+00
 -0.10621977D+01 -0.13826658D+01 -0.11798312D+01 -0.40736737D+00  0.67125072D-02
  0.30937884D-02 -0.86753057D-02 -0.22801409D-04 -0.17482674D-04 -0.87250798D-05
  0.11759575D-03  0.90164966D-04  0.44998637D-04 -0.32722270D-08 -0.25089361D-08
 -0.12521350D-08  0.23097128D-02  0.59961393D-04 -0.23331376D-03 -0.32959206D-08
 -0.33303452D-01 -0.61438366D-01 -0.99180573D-01 -0.12910364D+00 -0.11016437D+00
 -0.38037108D-01  0.36932127D-03  0.17021984D-03 -0.47731419D-03  0.22819587D-03
  0.17496612D-03  0.87320356D-04 -0.77568493D-04 -0.59474600D-04 -0.29681994D-04
 -0.88022312D-08 -0.67489926D-08 -0.33682203D-08 -0.50510619D-03 -0.17788694D-03
  0.16312159D-03  0.86509847D-08 -0.22864810D-02 -0.42181110D-02 -0.68093390D-02
 -0.88637362D-02 -0.75634421D-02 -0.26114748D-02  0.15530103D-04  0.71578102D-05
 -0.20071247D-04  0.63343386D-04  0.48567691D-04  0.24238682D-04  0.84621423D-04
  0.64882340D-04  0.32380835D-04 -0.24816164D-08 -0.19027460D-08 -0.94960363D-09
  0.13277627D-03  0.53512350D-04  0.30534191D-05 -0.51430495D-09 -0.46011447D-03
 -0.84882135D-03 -0.13702608D-02 -0.17836725D-02 -0.15220110D-02 -0.52551381D-03
 -0.30241133D-04 -0.13938111D-04  0.39083917D-04  0.65961691D-04  0.50575241D-04
  0.25240590D-04  0.18313773D-04  0.14041840D-04  0.70078621D-05 -0.13007992D-08
 -0.99737033D-09 -0.49775770D-09 -0.89601583D-04 -0.43289827D-04 -0.14559873D-04
  0.96191970D-09 -0.12153368D-01 -0.22420591D-01 -0.36193786D-01 -0.47113555D-01
 -0.40202082D-01 -0.13880813D-01  0.13789656D-03  0.63556400D-04 -0.17821878D-03
  0.18715096D-04  0.14349549D-04  0.71614305D-05  0.10613505D-03  0.81377624D-04
  0.40613138D-04 -0.23036711D-09 -0.17663089D-09 -0.88151194D-10 -0.18497596D-03
 -0.11890376D-03 -0.55389174D-04  0.47332368D-08 -0.11924130D+00 -0.21997691D+00
 -0.35511094D+00 -0.46224894D+00 -0.39443785D+00 -0.13618991D+00  0.20809551D-02
  0.95911030D-03 -0.26894454D-02 -0.15687351D-03 -0.12028066D-03 -0.60028477D-04
  0.20243755D-03  0.15521627D-03  0.77463799D-04  0.11057224D-07  0.84779780D-08
  0.42311052D-08 -0.83637186D-04  0.13956271D-03 -0.49918967D-03 -0.13581260D-07
  0.97638101D-05  0.16561270D-04  0.18854421D-04 -0.61309527D-04 -0.16345670D-05
 -0.27725350D-05 -0.31564331D-05 -0.37464716D-05 -0.26034576D-05 -0.44159568D-05
 -0.50274107D-05 -0.19839302D-04  0.54102409D-05  0.91767926D-05  0.10447454D-04
 -0.14544562D-04
MO    3     MO 0.0        OCC NO =    2.0000000  ORB. ENERGY =  -11.239875
  0.27090131D-04  0.45949990D-04  0.52312439D-04 -0.11265752D-03  0.39335461D-02
  0.72566244D-02  0.11714442D-01  0.15248723D-01  0.13011763D-01  0.44926489D-02
 -0.46483789D-04 -0.21424336D-04  0.60076074D-04  0.54940317D-04  0.42124751D-04
  0.21023203D-04  0.41390483D-04  0.31735597D-04  0.15838287D-04 -0.20118225D-08
 -0.15425379D-08 -0.76983451D-09 -0.11601621D-03  0.90634867D-05 -0.31309731D-04
 -0.53544084D-09 -0.20951682D-02 -0.38651762D-02 -0.62395929D-02 -0.81220959D-02
 -0.69305992D-02 -0.23929693D-02  0.67242787D-04  0.30992139D-04 -0.86905192D-04
  0.43057388D-04  0.33013674D-04  0.16476137D-04  0.58860301D-04  0.45130346D-04
  0.22523206D-04 -0.87862017D-09 -0.67367022D-09 -0.33620865D-09  0.91897711D-04
 -0.69692860D-04 -0.36640445D-04  0.23531234D-08 -0.19689241D-01 -0.36322804D-01
 -0.58636269D-01 -0.76326999D-01 -0.65129967D-01 -0.22487812D-01  0.27263720D-03
  0.12565824D-03 -0.35235882D-03 -0.75690706D-04 -0.58034832D-04 -0.28963449D-04
  0.19789724D-05  0.15173505D-05  0.75726426D-06  0.39537909D-08  0.30315161D-08
  0.15129390D-08 -0.21430458D-03  0.10175634D-03  0.55278584D-04 -0.35362992D-08
 -0.16576585D+00 -0.30580562D+00 -0.49366509D+00 -0.64260526D+00 -0.54833623D+00
 -0.18932732D+00  0.34098064D-02  0.15715766D-02 -0.44068650D-02  0.14105996D-03
  0.10815583D-03  0.53977339D-04  0.29118072D-03  0.22325890D-03  0.11142184D-03
 -0.31223057D-09 -0.23939859D-09 -0.11947668D-09  0.20783166D-02 -0.25167106D-03
 -0.36273344D-03  0.46048285D-08  0.33489172D+00  0.61780982D+00  0.99733662D+00
  0.12982359D+01  0.11077871D+01  0.38249226D+00 -0.63162195D-02 -0.29111398D-02
  0.81631398D-02  0.15486943D-03  0.11874406D-03  0.59261608D-04  0.27562016D-03
  0.21132806D-03  0.10546751D-03 -0.44049990D-08 -0.33774738D-08 -0.16855962D-08
 -0.21352029D-02 -0.25119612D-03 -0.39247875D-03  0.56833972D-08  0.44218767D-01
  0.81574991D-01  0.13168733D+00  0.17141777D+00  0.14627110D+00  0.50503895D-01
 -0.61891001D-03 -0.28525506D-03  0.79988495D-03  0.18599012D-03  0.14260543D-03
  0.71170103D-04 -0.13804159D-03 -0.10584153D-03 -0.52822343D-04 -0.88547182D-08
 -0.67892363D-08 -0.33883047D-08  0.31495661D-03 -0.38896654D-04  0.16980107D-03
  0.36266700D-08  0.28386709D-05  0.48149231D-05  0.54816198D-05  0.10592376D-04
  0.64823891D-05  0.10995359D-04  0.12517827D-04  0.26412063D-04  0.16375879D-04
  0.27776590D-04  0.31622666D-04 -0.10351070D-04 -0.18624620D-04 -0.31590881D-04
 -0.35965102D-04  0.38500488D-04 -0.38708567D-01 -0.71409748D-01 -0.11527748D+00
 -0.15005702D+00 -0.12804393D+00 -0.44210491D-01  0.64089593D-03  0.29538835D-03
 -0.82829976D-03  0.22212230D-09  0.17030929D-09  0.84996272D-10 -0.44454448D-04
 -0.34084851D-04 -0.17010730D-04 -0.65623351D-09 -0.50315823D-09 -0.25111122D-09
 -0.48637348D-03 -0.35767471D-09  0.32636049D-03  0.50120040D-08  0.27090098D-04
  0.45949933D-04  0.52312375D-04 -0.11265793D-03 -0.16576587D+00 -0.30580565D+00
 -0.49366514D+00 -0.64260534D+00 -0.54833630D+00 -0.18932735D+00  0.34098084D-02
  0.15715776D-02 -0.44068676D-02 -0.14106010D-03 -0.10815594D-03 -0.53977394D-04
  0.29118186D-03  0.22325978D-03  0.11142228D-03  0.67407448D-08  0.51683756D-08
  0.25793817D-08  0.20783241D-02  0.25167062D-03 -0.36273682D-03 -0.14528035D-07
 -0.19689152D-01 -0.36322641D-01 -0.58636005D-01 -0.76326656D-01 -0.65129673D-01
 -0.22487711D-01  0.27263532D-03  0.12565737D-03 -0.35235638D-03  0.75690042D-04
  0.58034323D-04  0.28963195D-04  0.19790866D-05  0.15174381D-05  0.75730795D-06
 -0.26479904D-08 -0.20303111D-08 -0.10132675D-08 -0.21430806D-03 -0.10175675D-03
  0.55280488D-04  0.50489897D-08 -0.20951680D-02 -0.38651758D-02 -0.62395922D-02
 -0.81220951D-02 -0.69305984D-02 -0.23929691D-02  0.67243273D-04  0.30992363D-04
 -0.86905821D-04 -0.43057513D-04 -0.33013770D-04 -0.16476185D-04  0.58860404D-04
  0.45130425D-04  0.22523245D-04  0.29322686D-08  0.22482776D-08  0.11220481D-08
  0.91901268D-04  0.69694294D-04 -0.36640798D-04 -0.32626865D-08  0.39335943D-02
  0.72567133D-02  0.11714585D-01  0.15248909D-01  0.13011922D-01  0.44927040D-02
 -0.46484827D-04 -0.21424814D-04  0.60077416D-04 -0.54941034D-04 -0.42125300D-04
 -0.21023477D-04  0.41390943D-04  0.31735950D-04  0.15838463D-04  0.19606541D-08
  0.15033052D-08  0.75025464D-09 -0.11601872D-03 -0.90641942D-05 -0.31311437D-04
  0.11220752D-08  0.44219180D-01  0.81575754D-01  0.13168856D+00  0.17141938D+00
  0.14627246D+00  0.50504367D-01 -0.61891567D-03 -0.28525767D-03  0.79989227D-03
 -0.18599032D-03 -0.14260558D-03 -0.71170179D-04 -0.13804221D-03 -0.10584201D-03
 -0.52822581D-04  0.66005447D-08  0.50608790D-08  0.25257333D-08  0.31496281D-03
  0.38898123D-04  0.16980405D-03  0.23943304D-09  0.33489442D+00  0.61781480D+00
  0.99734465D+00  0.12982464D+01  0.11077960D+01  0.38249534D+00 -0.63162724D-02
 -0.29111642D-02  0.81632083D-02 -0.15486740D-03 -0.11874250D-03 -0.59260830D-04
  0.27562058D-03  0.21132838D-03  0.10546767D-03  0.54203771D-08  0.41560014D-08
  0.20741360D-08 -0.21352291D-02  0.25119534D-03 -0.39247895D-03 -0.14150850D-07
  0.16375779D-04  0.27776420D-04  0.31622473D-04 -0.10351549D-04  0.64824201D-05
  0.10995411D-04  0.12517887D-04  0.26412446D-04  0.28385509D-05  0.48147197D-05
  0.54813881D-05  0.10591917D-04 -0.18624800D-04 -0.31591185D-04 -0.35965448D-04
  0.38501318D-04
MO    4     MO 0.0        OCC NO =    2.0000000  ORB. ENERGY =  -11.239235
  0.45767281D-09  0.77629972D-09  0.88378979D-09  0.19914788D-09  0.53649463D-02
  0.98972783D-02  0.15977276D-01  0.20797666D-01  0.17746686D-01  0.61275042D-02
 -0.14159797D-03 -0.65262374D-04  0.18300251D-03  0.89273779D-04  0.68449471D-04
  0.34161083D-04  0.81923203D-04  0.62813516D-04  0.31348347D-04 -0.20564315D-08
 -0.15767412D-08 -0.78690437D-09 -0.44460452D-03  0.14476248D-03 -0.26726617D-03
 -0.98911003D-08 -0.19630083D-02 -0.36213670D-02 -0.58460092D-02 -0.76097670D-02
 -0.64934280D-02 -0.22420246D-02  0.97353616D-04  0.44870193D-04 -0.12582070D-03
 -0.63189306D-05 -0.48449552D-05 -0.24179722D-05  0.44036732D-04  0.33764573D-04
  0.16850888D-04  0.19034265D-08  0.14594267D-08  0.72835621D-09  0.58277956D-03
 -0.24314626D-03 -0.50976072D-04  0.96967556D-08 -0.16342311D-01 -0.30148372D-01
 -0.48668821D-01 -0.63352344D-01 -0.54058670D-01 -0.18665160D-01  0.19105139D-03
  0.88055411D-04 -0.24691656D-03  0.36128745D-04  0.27701230D-04  0.13824855D-04
 -0.32837989D-05 -0.25178087D-05 -0.12565630D-05 -0.14850256D-08 -0.11386235D-08
 -0.56825291D-09 -0.59230480D-03  0.10162930D-03  0.34739922D-03  0.69672015D-09
 -0.11880380D+00 -0.21916982D+00 -0.35380804D+00 -0.46055294D+00 -0.39299066D+00
 -0.13569023D+00  0.25273103D-02  0.11648350D-02 -0.32663189D-02  0.75255109D-04
  0.57700844D-04  0.28796765D-04  0.32167172D-03  0.24663748D-03  0.12308939D-03
  0.35248074D-08  0.27025987D-08  0.13487862D-08  0.20065770D-02  0.39729239D-04
 -0.67669555D-03 -0.14047589D-07  0.35392022D+00  0.65291370D+00  0.10540052D+01
  0.13720015D+01  0.11707314D+01  0.40422542D+00 -0.71025694D-02 -0.32735677D-02
  0.91794256D-02 -0.19981284D-03 -0.15320381D-03 -0.76459440D-04  0.23569348D-03
  0.18071481D-03  0.90189355D-04  0.72177871D-08  0.55341413D-08  0.27619244D-08
 -0.40078000D-02 -0.41762131D-04 -0.27187902D-03  0.18531182D-08  0.55856116D-01
  0.10304363D+00  0.16634437D+00  0.21653094D+00  0.18476624D+00  0.63795343D-01
 -0.76385246D-03 -0.35205890D-03  0.98720990D-03  0.26196966D-05  0.20086172D-05
  0.10024408D-05 -0.92840602D-04 -0.71184285D-04 -0.35525947D-04  0.39629374D-10
  0.30385291D-10  0.15164390D-10  0.90262107D-03 -0.14473398D-03  0.47794023D-03
  0.11407014D-07 -0.19690899D-04 -0.33399492D-04 -0.38024141D-04 -0.85474119D-04
  0.65853953D-05  0.11170077D-04  0.12716738D-04  0.61460823D-04 -0.10186247D-04
 -0.17277804D-04 -0.19670169D-04 -0.10909123D-03 -0.21782571D-04 -0.36947363D-04
 -0.42063267D-04  0.15214873D-03 -0.20341301D-06 -0.37525728D-06 -0.60578160D-06
 -0.78854765D-06 -0.67286914D-06 -0.23232554D-06  0.35459056D-08  0.16343047D-08
 -0.45827609D-08 -0.11357716D-04 -0.87083762D-05 -0.43460901D-05 -0.28974086D-09
 -0.22215492D-09 -0.11087087D-09 -0.16311069D-08 -0.12506293D-08 -0.62415168D-09
 -0.12162904D-08  0.64183837D-04  0.12002265D-08 -0.38267419D-09 -0.26846951D-09
 -0.45537510D-09 -0.51842846D-09 -0.12335792D-08  0.11880245D+00  0.21916732D+00
  0.35380401D+00  0.46054770D+00  0.39298619D+00  0.13568869D+00 -0.25272826D-02
 -0.11648223D-02  0.32662832D-02  0.75253937D-04  0.57699946D-04  0.28796317D-04
 -0.32166905D-03 -0.24663542D-03 -0.12308836D-03 -0.36488929D-08 -0.27977397D-08
 -0.13962682D-08 -0.20065605D-02  0.39730867D-04  0.67669238D-03  0.65292757D-08
  0.16342038D-01  0.30147869D-01  0.48668009D-01  0.63351287D-01  0.54057768D-01
  0.18664848D-01 -0.19104711D-03 -0.88053441D-04  0.24691104D-03  0.36129310D-04
  0.27701663D-04  0.13825071D-04  0.32838368D-05  0.25178378D-05  0.12565775D-05
 -0.19931049D-08 -0.15281864D-08 -0.76267213D-09  0.59230361D-03  0.10162851D-03
 -0.34739872D-03 -0.93979979D-08  0.19629831D-02  0.36213206D-02  0.58459343D-02
  0.76096695D-02  0.64933447D-02  0.22419959D-02 -0.97353051D-04 -0.44869932D-04
  0.12581997D-03 -0.63191295D-05 -0.48451077D-05 -0.24180483D-05 -0.44036350D-04
 -0.33764280D-04 -0.16850742D-04 -0.18233801D-08 -0.13980522D-08 -0.69772602D-09
 -0.58277880D-03 -0.24314574D-03  0.50975804D-04  0.76507527D-08 -0.53649397D-02
 -0.98972661D-02 -0.15977256D-01 -0.20797640D-01 -0.17746664D-01 -0.61274967D-02