 Title Card Required
GAUSSIAN             87 MOL ORBITALS    418 PRIMITIVES       19 NUCLEI
  Cu   1    (CENTRE  1)  -0.60232960  0.89883373 -0.05403305  CHARGE = 29.0
  O    2    (CENTRE  2)  -0.53049551  4.71944244 -0.16243508  CHARGE =  8.0
  H    3    (CENTRE  3)   0.17109241  5.61357456 -1.58801851  CHARGE =  1.0
  O    4    (CENTRE  4)   3.56668986  0.56953307 -0.24254573  CHARGE =  8.0
  H    5    (CENTRE  5)   4.34701559 -1.02866660  0.14865561  CHARGE =  1.0
  O    6    (CENTRE  6)  -0.75145363  0.85399649  3.75699777  CHARGE =  8.0
  H    7    (CENTRE  7)  -2.29560026  1.38025254  4.57306051  CHARGE =  1.0
  O    8    (CENTRE  8)  -4.76884307  1.23919402  0.17160798  CHARGE =  8.0
  H    9    (CENTRE  9)  -5.95133959 -0.09038022 -0.21223275  CHARGE =  1.0
  O   10    (CENTRE 10)  -0.44506941  0.64156540 -3.85667603  CHARGE =  8.0
  H   11    (CENTRE 11)   1.19284730  0.82824867 -4.63877477  CHARGE =  1.0
  O   12    (CENTRE 12)  -0.67365547 -2.91573433  0.03319370  CHARGE =  8.0
  H   13    (CENTRE 13)  -1.29522852 -3.77337187  1.51718683  CHARGE =  1.0
  H   14    (CENTRE 14)  -0.16661506  5.69731440  1.33266453  CHARGE =  1.0
  H   15    (CENTRE 15)   4.76325528  1.86283524  0.21422204  CHARGE =  1.0
  H   16    (CENTRE 16)   0.64982501  1.28702503  4.83899739  CHARGE =  1.0
  H   17    (CENTRE 17)  -1.23680424 -3.83890712 -1.43482934  CHARGE =  1.0
  H   18    (CENTRE 18)  -5.56993339  2.80401036 -0.30340857  CHARGE =  1.0
  H   19    (CENTRE 19)  -1.69848861  1.34110274 -4.97980599  CHARGE =  1.0
CENTRE ASSIGNMENTS    1  1  1  1  1  1  1  1  1  1  1  1  1  1  1  1  1  1  1  1
CENTRE ASSIGNMENTS    1  1  1  1  1  1  1  1  1  1  1  1  1  1  1  1  1  1  1  1
CENTRE ASSIGNMENTS    1  1  1  1  1  1  1  1  1  1  1  1  1  1  1  1  1  1  1  1
CENTRE ASSIGNMENTS    1  1  1  1  1  1  1  1  1  1  1  1  1  1  1  1  1  1  1  1
CENTRE ASSIGNMENTS    1  1  1  1  1  1  1  1  1  1  1  1  1  1  2  2  2  2  2  2
CENTRE ASSIGNMENTS    2  2  2  2  2  2  2  2  2  2  2  2  2  2  2  2  2  2  2  2
CENTRE ASSIGNMENTS    2  2  2  2  2  2  2  2  2  2  3  3  3  3  3  3  3  3  3  4
CENTRE ASSIGNMENTS    4  4  4  4  4  4  4  4  4  4  4  4  4  4  4  4  4  4  4  4
CENTRE ASSIGNMENTS    4  4  4  4  4  4  4  4  4  4  4  4  4  4  4  5  5  5  5  5
CENTRE ASSIGNMENTS    5  5  5  5  6  6  6  6  6  6  6  6  6  6  6  6  6  6  6  6
CENTRE ASSIGNMENTS    6  6  6  6  6  6  6  6  6  6  6  6  6  6  6  6  6  6  6  6
CENTRE ASSIGNMENTS    7  7  7  7  7  7  7  7  7  8  8  8  8  8  8  8  8  8  8  8
CENTRE ASSIGNMENTS    8  8  8  8  8  8  8  8  8  8  8  8  8  8  8  8  8  8  8  8
CENTRE ASSIGNMENTS    8  8  8  8  8  9  9  9  9  9  9  9  9  9 10 10 10 10 10 10
CENTRE ASSIGNMENTS   10 10 10 10 10 10 10 10 10 10 10 10 10 10 10 10 10 10 10 10
CENTRE ASSIGNMENTS   10 10 10 10 10 10 10 10 10 10 11 11 11 11 11 11 11 11 11 12
CENTRE ASSIGNMENTS   12 12 12 12 12 12 12 12 12 12 12 12 12 12 12 12 12 12 12 12
CENTRE ASSIGNMENTS   12 12 12 12 12 12 12 12 12 12 12 12 12 12 12 13 13 13 13 13
CENTRE ASSIGNMENTS   13 13 13 13 14 14 14 14 14 14 14 14 14 15 15 15 15 15 15 15
CENTRE ASSIGNMENTS   15 15 16 16 16 16 16 16 16 16 16 17 17 17 17 17 17 17 17 17
CENTRE ASSIGNMENTS   18 18 18 18 18 18 18 18 18 19 19 19 19 19 19 19 19 19
TYPE ASSIGNMENTS      1  1  1  1  1  1  1  1  1  1  1  1  1  1  1  2  2  2  2  2
TYPE ASSIGNMENTS      3  3  3  3  3  4  4  4  4  4  2  3  4  2  3  4  2  3  4  2
TYPE ASSIGNMENTS      3  4  2  3  4  2  3  4  5  5  5  6  6  6  7  7  7  8  8  8
TYPE ASSIGNMENTS      9  9  9 10 10 10  5  6  7  8  9 10  5  6  7  8  9 10  5  6
TYPE ASSIGNMENTS      7  8  9 10 11 12 13 17 14 15 18 19 16 20  1  1  1  1  1  1
TYPE ASSIGNMENTS      1  1  1  2  2  2  3  3  3  4  4  4  1  2  3  4  1  2  3  4
TYPE ASSIGNMENTS      1  2  3  4  5  6  7  8  9 10  1  1  1  1  1  1  2  3  4  1
TYPE ASSIGNMENTS      1  1  1  1  1  1  1  1  2  2  2  3  3  3  4  4  4  1  2  3
TYPE ASSIGNMENTS      4  1  2  3  4  1  2  3  4  5  6  7  8  9 10  1  1  1  1  1
TYPE ASSIGNMENTS      1  2  3  4  1  1  1  1  1  1  1  1  1  2  2  2  3  3  3  4
TYPE ASSIGNMENTS      4  4  1  2  3  4  1  2  3  4  1  2  3  4  5  6  7  8  9 10
TYPE ASSIGNMENTS      1  1  1  1  1  1  2  3  4  1  1  1  1  1  1  1  1  1  2  2
TYPE ASSIGNMENTS      2  3  3  3  4  4  4  1  2  3  4  1  2  3  4  1  2  3  4  5
TYPE ASSIGNMENTS      6  7  8  9 10  1  1  1  1  1  1  2  3  4  1  1  1  1  1  1
TYPE ASSIGNMENTS      1  1  1  2  2  2  3  3  3  4  4  4  1  2  3  4  1  2  3  4
TYPE ASSIGNMENTS      1  2  3  4  5  6  7  8  9 10  1  1  1  1  1  1  2  3  4  1
TYPE ASSIGNMENTS      1  1  1  1  1  1  1  1  2  2  2  3  3  3  4  4  4  1  2  3
TYPE ASSIGNMENTS      4  1  2  3  4  1  2  3  4  5  6  7  8  9 10  1  1  1  1  1
TYPE ASSIGNMENTS      1  2  3  4  1  1  1  1  1  1  2  3  4  1  1  1  1  1  1  2
TYPE ASSIGNMENTS      3  4  1  1  1  1  1  1  2  3  4  1  1  1  1  1  1  2  3  4
TYPE ASSIGNMENTS      1  1  1  1  1  1  2  3  4  1  1  1  1  1  1  2  3  4
EXPONENTS  0.3372000D+06 0.5007290D+05 0.1137340D+05 0.3239820D+04 0.1071970D+04
EXPONENTS  0.3950990D+03 0.1583990D+03 0.6735910D+02 0.2229830D+02 0.9393570D+01
EXPONENTS  0.2578480D+01 0.9640800D+00 0.1133030D+00 0.4079100D-01 0.1223700D-01
EXPONENTS  0.2245290D+04 0.5321060D+03 0.1721950D+03 0.6532390D+02 0.2705510D+02
EXPONENTS  0.2245290D+04 0.5321060D+03 0.1721950D+03 0.6532390D+02 0.2705510D+02
EXPONENTS  0.2245290D+04 0.5321060D+03 0.1721950D+03 0.6532390D+02 0.2705510D+02
EXPONENTS  0.1174350D+02 0.1174350D+02 0.1174350D+02 0.4693820D+01 0.4693820D+01
EXPONENTS  0.4693820D+01 0.1906670D+01 0.1906670D+01 0.1906670D+01 0.7114450D+00
EXPONENTS  0.7114450D+00 0.7114450D+00 0.1550650D+00 0.1550650D+00 0.1550650D+00
EXPONENTS  0.4619900D-01 0.4619900D-01 0.4619900D-01 0.5364780D+02 0.1507470D+02
EXPONENTS  0.5103920D+01 0.5364780D+02 0.1507470D+02 0.5103920D+01 0.5364780D+02
EXPONENTS  0.1507470D+02 0.5103920D+01 0.5364780D+02 0.1507470D+02 0.5103920D+01
EXPONENTS  0.5364780D+02 0.1507470D+02 0.5103920D+01 0.5364780D+02 0.1507470D+02
EXPONENTS  0.5103920D+01 0.1727430D+01 0.1727430D+01 0.1727430D+01 0.1727430D+01
EXPONENTS  0.1727430D+01 0.1727430D+01 0.5283220D+00 0.5283220D+00 0.5283220D+00
EXPONENTS  0.5283220D+00 0.5283220D+00 0.5283220D+00 0.1491000D+00 0.1491000D+00
EXPONENTS  0.1491000D+00 0.1491000D+00 0.1491000D+00 0.1491000D+00 0.1440000D+01
EXPONENTS  0.1440000D+01 0.1440000D+01 0.1440000D+01 0.1440000D+01 0.1440000D+01
EXPONENTS  0.1440000D+01 0.1440000D+01 0.1440000D+01 0.1440000D+01 0.8588500D+04
EXPONENTS  0.1297230D+04 0.2992960D+03 0.8737710D+02 0.2567890D+02 0.3740040D+01
EXPONENTS  0.4211750D+02 0.9628370D+01 0.2853320D+01 0.4211750D+02 0.9628370D+01
EXPONENTS  0.2853320D+01 0.4211750D+02 0.9628370D+01 0.2853320D+01 0.4211750D+02
EXPONENTS  0.9628370D+01 0.2853320D+01 0.9056610D+00 0.9056610D+00 0.9056610D+00
EXPONENTS  0.9056610D+00 0.2556110D+00 0.2556110D+00 0.2556110D+00 0.2556110D+00
EXPONENTS  0.8450000D-01 0.8450000D-01 0.8450000D-01 0.8450000D-01 0.1292000D+01
EXPONENTS  0.1292000D+01 0.1292000D+01 0.1292000D+01 0.1292000D+01 0.1292000D+01
EXPONENTS  0.3386500D+02 0.5094790D+01 0.1158790D+01 0.3258400D+00 0.1027410D+00
EXPONENTS  0.3600000D-01 0.7500000D+00 0.7500000D+00 0.7500000D+00 0.8588500D+04
EXPONENTS  0.1297230D+04 0.2992960D+03 0.8737710D+02 0.2567890D+02 0.3740040D+01
EXPONENTS  0.4211750D+02 0.9628370D+01 0.2853320D+01 0.4211750D+02 0.9628370D+01
EXPONENTS  0.2853320D+01 0.4211750D+02 0.9628370D+01 0.2853320D+01 0.4211750D+02
EXPONENTS  0.9628370D+01 0.2853320D+01 0.9056610D+00 0.9056610D+00 0.9056610D+00
EXPONENTS  0.9056610D+00 0.2556110D+00 0.2556110D+00 0.2556110D+00 0.2556110D+00
EXPONENTS  0.8450000D-01 0.8450000D-01 0.8450000D-01 0.8450000D-01 0.1292000D+01
EXPONENTS  0.1292000D+01 0.1292000D+01 0.1292000D+01 0.1292000D+01 0.1292000D+01
EXPONENTS  0.3386500D+02 0.5094790D+01 0.1158790D+01 0.3258400D+00 0.1027410D+00
EXPONENTS  0.3600000D-01 0.7500000D+00 0.7500000D+00 0.7500000D+00 0.8588500D+04
EXPONENTS  0.1297230D+04 0.2992960D+03 0.8737710D+02 0.2567890D+02 0.3740040D+01
EXPONENTS  0.4211750D+02 0.9628370D+01 0.2853320D+01 0.4211750D+02 0.9628370D+01
EXPONENTS  0.2853320D+01 0.4211750D+02 0.9628370D+01 0.2853320D+01 0.4211750D+02
EXPONENTS  0.9628370D+01 0.2853320D+01 0.9056610D+00 0.9056610D+00 0.9056610D+00
EXPONENTS  0.9056610D+00 0.2556110D+00 0.2556110D+00 0.2556110D+00 0.2556110D+00
EXPONENTS  0.8450000D-01 0.8450000D-01 0.8450000D-01 0.8450000D-01 0.1292000D+01
EXPONENTS  0.1292000D+01 0.1292000D+01 0.1292000D+01 0.1292000D+01 0.1292000D+01
EXPONENTS  0.3386500D+02 0.5094790D+01 0.1158790D+01 0.3258400D+00 0.1027410D+00
EXPONENTS  0.3600000D-01 0.7500000D+00 0.7500000D+00 0.7500000D+00 0.8588500D+04
EXPONENTS  0.1297230D+04 0.2992960D+03 0.8737710D+02 0.2567890D+02 0.3740040D+01
EXPONENTS  0.4211750D+02 0.9628370D+01 0.2853320D+01 0.4211750D+02 0.9628370D+01
EXPONENTS  0.2853320D+01 0.4211750D+02 0.9628370D+01 0.2853320D+01 0.4211750D+02
EXPONENTS  0.9628370D+01 0.2853320D+01 0.9056610D+00 0.9056610D+00 0.9056610D+00
EXPONENTS  0.9056610D+00 0.2556110D+00 0.2556110D+00 0.2556110D+00 0.2556110D+00
EXPONENTS  0.8450000D-01 0.8450000D-01 0.8450000D-01 0.8450000D-01 0.1292000D+01
EXPONENTS  0.1292000D+01 0.1292000D+01 0.1292000D+01 0.1292000D+01 0.1292000D+01
EXPONENTS  0.3386500D+02 0.5094790D+01 0.1158790D+01 0.3258400D+00 0.1027410D+00
EXPONENTS  0.3600000D-01 0.7500000D+00 0.7500000D+00 0.7500000D+00 0.8588500D+04
EXPONENTS  0.1297230D+04 0.2992960D+03 0.8737710D+02 0.2567890D+02 0.3740040D+01
EXPONENTS  0.4211750D+02 0.9628370D+01 0.2853320D+01 0.4211750D+02 0.9628370D+01
EXPONENTS  0.2853320D+01 0.4211750D+02 0.9628370D+01 0.2853320D+01 0.4211750D+02
EXPONENTS  0.9628370D+01 0.2853320D+01 0.9056610D+00 0.9056610D+00 0.9056610D+00
EXPONENTS  0.9056610D+00 0.2556110D+00 0.2556110D+00 0.2556110D+00 0.2556110D+00
EXPONENTS  0.8450000D-01 0.8450000D-01 0.8450000D-01 0.8450000D-01 0.1292000D+01
EXPONENTS  0.1292000D+01 0.1292000D+01 0.1292000D+01 0.1292000D+01 0.1292000D+01
EXPONENTS  0.3386500D+02 0.5094790D+01 0.1158790D+01 0.3258400D+00 0.1027410D+00
EXPONENTS  0.3600000D-01 0.7500000D+00 0.7500000D+00 0.7500000D+00 0.8588500D+04
EXPONENTS  0.1297230D+04 0.2992960D+03 0.8737710D+02 0.2567890D+02 0.3740040D+01
EXPONENTS  0.4211750D+02 0.9628370D+01 0.2853320D+01 0.4211750D+02 0.9628370D+01
EXPONENTS  0.2853320D+01 0.4211750D+02 0.9628370D+01 0.2853320D+01 0.4211750D+02
EXPONENTS  0.9628370D+01 0.2853320D+01 0.9056610D+00 0.9056610D+00 0.9056610D+00
EXPONENTS  0.9056610D+00 0.2556110D+00 0.2556110D+00 0.2556110D+00 0.2556110D+00
EXPONENTS  0.8450000D-01 0.8450000D-01 0.8450000D-01 0.8450000D-01 0.1292000D+01
EXPONENTS  0.1292000D+01 0.1292000D+01 0.1292000D+01 0.1292000D+01 0.1292000D+01
EXPONENTS  0.3386500D+02 0.5094790D+01 0.1158790D+01 0.3258400D+00 0.1027410D+00
EXPONENTS  0.3600000D-01 0.7500000D+00 0.7500000D+00 0.7500000D+00 0.3386500D+02
EXPONENTS  0.5094790D+01 0.1158790D+01 0.3258400D+00 0.1027410D+00 0.3600000D-01
EXPONENTS  0.7500000D+00 0.7500000D+00 0.7500000D+00 0.3386500D+02 0.5094790D+01
EXPONENTS  0.1158790D+01 0.3258400D+00 0.1027410D+00 0.3600000D-01 0.7500000D+00
EXPONENTS  0.7500000D+00 0.7500000D+00 0.3386500D+02 0.5094790D+01 0.1158790D+01
EXPONENTS  0.3258400D+00 0.1027410D+00 0.3600000D-01 0.7500000D+00 0.7500000D+00
EXPONENTS  0.7500000D+00 0.3386500D+02 0.5094790D+01 0.1158790D+01 0.3258400D+00
EXPONENTS  0.1027410D+00 0.3600000D-01 0.7500000D+00 0.7500000D+00 0.7500000D+00
EXPONENTS  0.3386500D+02 0.5094790D+01 0.1158790D+01 0.3258400D+00 0.1027410D+00
EXPONENTS  0.3600000D-01 0.7500000D+00 0.7500000D+00 0.7500000D+00 0.3386500D+02
EXPONENTS  0.5094790D+01 0.1158790D+01 0.3258400D+00 0.1027410D+00 0.3600000D-01
EXPONENTS  0.7500000D+00 0.7500000D+00 0.7500000D+00
MO    1     MO 0.0        OCC NO =    1.0000000  ORB. ENERGY = -325.200224
  0.27912735D+01  0.51747632D+01  0.88031739D+01  0.13650511D+02  0.18466144D+02
  0.19732297D+02  0.12955630D+02  0.36995725D+01  0.98909792D-01 -0.41275800D-02
  0.99172002D-04 -0.16580460D-04  0.60442403D-06  0.49012055D-06  0.10663989D-07
 -0.53182243D-06 -0.71633990D-06 -0.82112365D-06 -0.71960733D-06 -0.40790488D-06
  0.18604901D-04  0.25059930D-04  0.28725611D-04  0.25174235D-04  0.14269857D-04
  0.14438235D-06  0.19447626D-06  0.22292358D-06  0.19536332D-06  0.11074047D-06
  0.11242558D-06 -0.41695170D-05 -0.87770512D-07 -0.20096096D-07  0.11311016D-05
  0.45341594D-10 -0.33666607D-09 -0.21302040D-06  0.11028136D-07  0.16525570D-08
  0.43034674D-07 -0.68962402D-08 -0.77207837D-09 -0.12617814D-07  0.35866428D-08
 -0.18604726D-08 -0.34536410D-08 -0.20993199D-08 -0.39778304D-03 -0.23380559D-03
 -0.87148043D-04  0.20103363D-03  0.11816187D-03  0.44043325D-04  0.19674941D-03
  0.11564372D-03  0.43104719D-04  0.59766720D-04  0.35129183D-04  0.13093954D-04
 -0.42487355D-04 -0.24972862D-04 -0.93083150D-05  0.21218094D-05  0.12471394D-05
  0.46485524D-06  0.11424158D-04 -0.57671762D-05 -0.56569814D-05 -0.17797737D-05
  0.11376766D-05 -0.59692782D-07 -0.81725295D-06  0.40743455D-06  0.40981839D-06
  0.14889538D-06 -0.48103764D-07  0.16483233D-08  0.85248199D-07 -0.34716182D-07
 -0.50532016D-07 -0.24852158D-07 -0.12828321D-07  0.20863227D-08  0.22432810D-08
 -0.67940894D-08  0.58980820D-09 -0.19856169D-08 -0.86652168D-09 -0.59642383D-08
 -0.47442263D-08  0.21248790D-07  0.41948137D-08  0.83386981D-08 -0.47351076D-09
 -0.87085940D-09 -0.14254103D-08 -0.19209212D-08 -0.19002002D-08 -0.21149770D-09
 -0.11222677D-07 -0.29998726D-07  0.42847118D-10  0.45004350D-08  0.46208021D-08
  0.34921419D-08 -0.20120362D-06 -0.20658494D-06 -0.15612526D-06  0.45034799D-08
  0.46239283D-08  0.34945045D-08  0.59565166D-07 -0.10230722D-07 -0.18370135D-07
 -0.17396880D-08 -0.54072849D-07 -0.49084127D-08  0.55759400D-07 -0.20666356D-07
 -0.16514305D-06  0.65121396D-09  0.34763584D-07  0.67720272D-08  0.99993342D-07
 -0.12972365D-06  0.29730310D-07 -0.57427319D-07  0.16857175D-07 -0.21054684D-07
 -0.71107474D-08 -0.12826774D-07 -0.18910046D-07  0.39659389D-07 -0.67754985D-08
 -0.15852251D-07  0.28713654D-08 -0.62895882D-07  0.95472905D-10  0.24249957D-09
  0.44599415D-09  0.72999689D-09  0.98376340D-09  0.97315153D-09  0.10831454D-09
 -0.76542207D-08 -0.20460081D-07  0.29223090D-10 -0.18422220D-06 -0.18914934D-06
 -0.14294842D-06  0.32999987D-07  0.33882593D-07  0.25606555D-07  0.83208999D-08
  0.85434477D-08  0.64566564D-08  0.53728404D-07  0.53451973D-07 -0.19214625D-07
  0.11141627D-08 -0.10141980D-06  0.11156796D-06  0.53035394D-08 -0.14331243D-07
 -0.28840029D-06  0.57666813D-07 -0.48293650D-08 -0.45876607D-08 -0.88144232D-07
 -0.27588153D-08  0.90903047D-07  0.10143686D-07 -0.16035561D-08 -0.58849033D-09
 -0.37428380D-09 -0.67515458D-09 -0.99535581D-09  0.32499469D-07  0.18167451D-07
 -0.20877848D-07 -0.50262514D-07 -0.16502517D-07  0.14679312D-07  0.11071629D-08
  0.20362435D-08  0.33328945D-08  0.44914981D-08  0.44430482D-08  0.49452395D-09
 -0.16897810D-07 -0.45168616D-07  0.64514240D-10  0.24082170D-07  0.24726263D-07
  0.18686716D-07 -0.12240220D-07 -0.12567592D-07 -0.94978781D-08 -0.23667289D-06
 -0.24300286D-06 -0.18364787D-06  0.56807838D-07 -0.14952228D-07  0.18276443D-07
  0.27666852D-07  0.25921135D-07  0.23120514D-07 -0.10190091D-08  0.80933651D-07
 -0.19132706D-06 -0.92994141D-08 -0.19541922D-08  0.13192133D-07  0.52983826D-07
  0.98480362D-07 -0.15146419D-06  0.20320897D-07  0.14142879D-07  0.47119064D-07
  0.29475759D-08  0.53170064D-08  0.78386689D-08 -0.20635618D-07  0.18883212D-07
 -0.17332967D-07 -0.42607407D-07  0.14185366D-07 -0.29149075D-07  0.22061783D-09
  0.40575026D-09  0.66412627D-09  0.89499438D-09  0.88534006D-09  0.98540876D-10
 -0.75400180D-08 -0.20154811D-07  0.28787075D-10  0.18538295D-06  0.19034113D-06
  0.14384910D-06 -0.25626894D-07 -0.26312302D-07 -0.19885355D-07 -0.91647435D-08
 -0.94098605D-08 -0.71114423D-08  0.53792048D-07 -0.53958513D-07  0.13513005D-07
 -0.13983701D-08 -0.10303773D-06 -0.10963718D-06  0.78377632D-08  0.16650864D-07
 -0.28836927D-06 -0.56266698D-07  0.72518688D-08  0.59921216D-08 -0.90989323D-07
 -0.40929294D-09  0.91398615D-07  0.23816851D-08  0.49890057D-09 -0.16577989D-08
 -0.30591139D-08 -0.55182051D-08 -0.81352888D-08  0.30323402D-07  0.11159905D-07
 -0.13356985D-07  0.51473305D-07 -0.26631163D-07 -0.19535394D-07  0.91661107D-09
  0.16857893D-08  0.27592760D-08  0.37184743D-08  0.36783631D-08  0.40941231D-09
 -0.16094580D-07 -0.43021546D-07  0.61447584D-10 -0.38280710D-07 -0.39304552D-07
 -0.29704166D-07  0.34516963D-08  0.35440141D-08  0.26783662D-08  0.23962559D-06
  0.24603453D-06  0.18593904D-06  0.54122753D-07  0.29118221D-07  0.13483008D-07
 -0.31256953D-07  0.28468730D-07 -0.26353716D-07  0.22567478D-08 -0.77243369D-07
 -0.18359775D-06  0.19115025D-07 -0.40827833D-08 -0.12762576D-07  0.51915397D-07
  0.97384954D-07 -0.14930035D-06  0.20478326D-09 -0.18510931D-08 -0.66051680D-07
  0.34575161D-08  0.62368657D-08  0.91947840D-08 -0.20308488D-07 -0.28318063D-08
 -0.16789207D-07  0.47220192D-07  0.67983707D-08  0.22971302D-07  0.95296082D-10
  0.17526421D-09  0.28686997D-09  0.38659367D-09  0.38242348D-09  0.42564825D-10
 -0.13082291D-07 -0.34969561D-07  0.49946951D-10 -0.93835209D-08 -0.96344893D-08
 -0.72812041D-08  0.19842128D-06  0.20372818D-06  0.15396628D-06 -0.76907638D-08
 -0.78964582D-08 -0.59676982D-08  0.71728277D-07  0.16422609D-07  0.26296383D-07
  0.31361358D-08 -0.86611781D-07  0.12606462D-07 -0.62869147D-07  0.65294689D-08
 -0.17440354D-06 -0.53640380D-09 -0.33395492D-07  0.29965268D-08  0.10923618D-06
 -0.12980747D-06  0.20571293D-07 -0.76771828D-07  0.62813036D-08 -0.15474973D-08
 -0.82600095D-08 -0.14899879D-07 -0.21966348D-07  0.65594003D-07 -0.22172658D-07
 -0.16999652D-07  0.30336513D-08  0.79406631D-07 -0.15863545D-07 -0.96725959D-08
 -0.17447983D-07 -0.25722926D-07  0.73874647D-07 -0.35450227D-07 -0.14225802D-07
 -0.29911802D-08 -0.84069636D-07 -0.97611625D-08 -0.31196469D-08 -0.56273979D-08
 -0.82962679D-08  0.21027637D-07  0.10038489D-07 -0.12046311D-07 -0.47205207D-07
  0.30360895D-07  0.22741223D-07 -0.33143796D-09 -0.59786680D-09 -0.88141325D-09
 -0.40853181D-07  0.29262836D-07 -0.12688827D-07  0.49393773D-07  0.21920675D-07
 -0.10818183D-07 -0.94871611D-08 -0.17113485D-07 -0.25229788D-07  0.77640581D-07
 -0.18859622D-07 -0.17203086D-07  0.53945874D-08  0.88578359D-07  0.17060325D-07
 -0.46493932D-09 -0.83868419D-09 -0.12364416D-08  0.24572350D-07  0.15888165D-07
 -0.19385605D-07  0.45531699D-07  0.18547933D-07 -0.20178643D-07 -0.75854101D-09
 -0.13682998D-08 -0.20172345D-08 -0.40474144D-07  0.38704564D-07 -0.14283051D-07
 -0.40760172D-07  0.32182834D-07  0.11701177D-07
MO    2     MO 0.0        OCC NO =    1.0000000  ORB. ENERGY =  -39.629664
 -0.95547721D+00 -0.17713665D+01 -0.30134030D+01 -0.46726888D+01 -0.63211218D+01
 -0.67545369D+01 -0.77192090D+01 -0.17769921D+01  0.36283557D+01  0.23684518D+01
  0.74665277D-01 -0.71626841D-02  0.84077883D-03  0.41623685D-03  0.44455659D-05
 -0.97449959D-04 -0.13126053D-03 -0.15046087D-03 -0.13185925D-03 -0.74743583D-04
  0.24166289D-02  0.32550860D-02  0.37312288D-02  0.32699333D-02  0.18535411D-02
 -0.61232190D-04 -0.82476891D-04 -0.94541328D-04 -0.82853091D-04 -0.46964753D-04
  0.19646233D-04  0.42486180D-03 -0.13049772D-04 -0.39566657D-04  0.18385698D-03
 -0.42677529D-05  0.24226033D-04 -0.93389468D-04  0.15296428D-05 -0.11414696D-04
  0.45226532D-04 -0.50798048D-07  0.45018546D-05 -0.21835502D-04 -0.39438730D-06
  0.20694212D-05  0.41934119D-06 -0.76153686D-06 -0.91570554D-01 -0.53822575D-01
 -0.20061676D-01  0.46268281D-01  0.27195183D-01  0.10136657D-01  0.45302273D-01
  0.26627391D-01  0.99250194D-02  0.14220744D-01  0.83585502D-02  0.31155426D-02
 -0.95193857D-02 -0.55952250D-02 -0.20855485D-02  0.32995472D-03  0.19393803D-03
  0.72287918D-04  0.14429253D-02 -0.70759487D-03 -0.73533039D-03 -0.27408764D-03
  0.11847230D-03  0.11404432D-04 -0.92076001D-04  0.36899621D-04  0.55176380D-04
  0.39661557D-04  0.12535776D-04 -0.84382035D-05 -0.53728676D-04  0.33546108D-04
  0.20182568D-04 -0.11864747D-04 -0.27814809D-04  0.59922901D-05  0.14397966D-05
 -0.17915075D-05  0.43206161D-06 -0.11564962D-04  0.28213693D-04  0.24057785D-05
  0.72455724D-05 -0.22839171D-04 -0.37019633D-05  0.99021079D-05  0.45727857D-05
  0.84100590D-05  0.13765465D-04  0.18550710D-04  0.18350603D-04  0.20424745D-05
 -0.38683468D-04 -0.10340267D-03  0.14768982D-06  0.16503481D-04  0.16944878D-04
  0.12805984D-04  0.11838634D-03  0.12155266D-03  0.91862650D-04 -0.66140707D-05
 -0.67909683D-05 -0.51322312D-05  0.17518751D-03 -0.17870431D-04 -0.19508623D-03
  0.72251205D-05 -0.20872415D-03  0.99190328D-05  0.27699435D-03 -0.22782666D-04
 -0.28579797D-03 -0.57699599D-05  0.15810654D-04  0.65092508D-06  0.15853010D-03
 -0.16471595D-03  0.61858435D-05 -0.12987968D-05  0.27612723D-04 -0.17484843D-05
  0.10012277D-05  0.18060720D-05  0.26626261D-05 -0.21191322D-04  0.43466465D-04
 -0.92773958D-05  0.21238023D-04 -0.11026082D-03 -0.33259858D-04  0.21837894D-05
  0.40163258D-05  0.65738651D-05  0.88591170D-05  0.87635536D-05  0.97540852D-06
 -0.22238782D-04 -0.59445278D-04  0.84905566D-07  0.17153751D-03  0.17612539D-03
  0.13310565D-03 -0.31157807D-05 -0.31991142D-05 -0.24177103D-05  0.60626742D-05
  0.62248243D-05  0.47043715D-05  0.76421063D-04 -0.18897775D-03  0.85709991D-05
 -0.63247791D-05 -0.60607940D-05  0.16911020D-03  0.42404284D-04  0.13447205D-04
 -0.19172826D-03  0.85051705D-05 -0.13261661D-04 -0.50520683D-05 -0.53254106D-04
 -0.75400835D-05  0.60794189D-04  0.58483336D-04  0.32815227D-04  0.41112998D-04
 -0.23577234D-05 -0.42529966D-05 -0.62700380D-05  0.15266756D-04 -0.10404605D-05
 -0.84195059D-05 -0.10273387D-03 -0.16195628D-04 -0.40642792D-05  0.41617498D-05
  0.76541005D-05  0.12528123D-04  0.16883235D-04  0.16701115D-04  0.18588818D-05
 -0.34417289D-04 -0.91998981D-04  0.13140195D-06 -0.52325195D-05 -0.53724666D-05
 -0.40602075D-05  0.18886597D-05  0.19391731D-05  0.14655178D-05  0.12358499D-03
  0.12689035D-03  0.95896578D-04  0.16924742D-03  0.71316156D-05 -0.50170492D-05
 -0.20836624D-03 -0.22948134D-03  0.24992647D-04 -0.25705543D-04  0.25161680D-03
 -0.27672154D-03 -0.74814743D-05 -0.27915824D-05  0.26115299D-04 -0.25396995D-05
  0.15676629D-03 -0.15422659D-03  0.47564560D-04  0.23027065D-04 -0.44690385D-05
 -0.40380022D-05 -0.72839798D-05 -0.10738506D-04  0.67968094D-04  0.89803173D-05
 -0.82191970D-05  0.14430551D-04  0.19958426D-06 -0.14758687D-03  0.20438301D-05
  0.37589192D-05  0.61525456D-05  0.82913355D-05  0.82018967D-05  0.91289451D-06
 -0.20774626D-04 -0.55531521D-04  0.79315555D-07 -0.16186438D-03 -0.16619355D-03
 -0.12559972D-03  0.22452559D-04  0.23053067D-04  0.17422209D-04 -0.55767289D-05
 -0.57258822D-05 -0.43272991D-05  0.71707906D-04  0.18018660D-03 -0.22908185D-04
  0.66290552D-05 -0.62312300D-05 -0.15476116D-03 -0.99217184D-05 -0.11442107D-04
 -0.18847012D-03 -0.72007664D-05  0.20087564D-05  0.65210405D-05 -0.54946912D-04
 -0.28209748D-05  0.57767887D-04  0.29474793D-04  0.23037043D-04  0.20372738D-04
 -0.12891230D-05 -0.23253940D-05 -0.34282437D-05 -0.48636545D-04  0.33935657D-04
 -0.88810967D-05  0.52757755D-04 -0.57421815D-04 -0.16899917D-04  0.42501101D-05
  0.78166088D-05  0.12794114D-04  0.17241692D-04  0.17055705D-04  0.18983487D-05
 -0.35188649D-04 -0.94060862D-04  0.13434693D-06  0.13478019D-04  0.13838497D-04
  0.10458356D-04  0.81211508D-06  0.83383562D-06  0.63016598D-06 -0.12108987D-03
 -0.12432850D-03 -0.93960474D-04  0.17253442D-03 -0.17490900D-04  0.75964143D-06
  0.20579291D-03 -0.23441929D-03 -0.44285745D-04 -0.23280780D-04 -0.25563691D-03
 -0.27258136D-03  0.92329548D-05 -0.55608225D-05 -0.24982709D-04 -0.76127606D-05
  0.15980603D-03 -0.15219327D-03  0.26645507D-04  0.44457278D-04 -0.20967483D-04
 -0.49486516D-05 -0.89266614D-05 -0.13160252D-04  0.85941244D-04 -0.37262756D-06
 -0.87255724D-05 -0.25785994D-04  0.10989254D-04  0.15751269D-03  0.50579674D-05
  0.93023831D-05  0.15226008D-04  0.20518978D-04  0.20297639D-04  0.22591852D-05
 -0.43179726D-04 -0.11542138D-03  0.16485611D-06 -0.33921130D-04 -0.34828372D-04
 -0.26321321D-04 -0.13425698D-03 -0.13784777D-03 -0.10417758D-03  0.67887601D-06
  0.69703299D-06  0.52677826D-06  0.20434351D-03  0.35768061D-04  0.21842747D-03
 -0.22033986D-05 -0.27794860D-03 -0.72044864D-05 -0.29203709D-03  0.18531478D-04
 -0.29321876D-03  0.91453579D-05 -0.82494395D-05  0.13780834D-05  0.18119687D-03
 -0.17536249D-03 -0.58343751D-05 -0.36156566D-04  0.66410215D-05 -0.24528137D-05
  0.10736901D-05  0.19367837D-05  0.28553297D-05  0.24164002D-05  0.51243728D-04
 -0.91039586D-05 -0.84772150D-05  0.12750098D-03  0.11633858D-04  0.92962920D-07
  0.16769184D-06  0.24722198D-06  0.21078331D-05  0.35607065D-04 -0.89546633D-05
  0.76695856D-05 -0.12077888D-03  0.35344398D-04 -0.63151937D-06 -0.11391709D-05
 -0.16794381D-05 -0.76588218D-04  0.50292019D-04 -0.91605854D-05 -0.38899069D-04
  0.68201277D-04  0.26043335D-04 -0.53927295D-05 -0.97277147D-05 -0.14341216D-04
  0.16999785D-04  0.29249052D-04 -0.12020708D-04  0.24921816D-04  0.27467802D-04
 -0.12625336D-03 -0.67875341D-07 -0.12243743D-06 -0.18050505D-06  0.22888768D-04
  0.51405200D-04 -0.94106189D-05 -0.32774401D-05  0.13967301D-03 -0.90048091D-05
 -0.21705759D-05 -0.39154093D-05 -0.57723453D-05 -0.71257680D-05  0.26943253D-04
 -0.80445610D-05  0.91570650D-04  0.24048586D-04 -0.30168939D-05 -0.34770103D-05
 -0.62720306D-05 -0.92466263D-05 -0.32580316D-05  0.34651397D-04 -0.11747763D-04
 -0.25824130D-04  0.39048051D-04  0.10985039D-03
MO    3     MO 0.0        OCC NO =    1.0000000  ORB. ENERGY =  -34.863100
  0.47519815D-04  0.88097346D-04  0.14986894D-03  0.23239205D-03  0.31437540D-03
  0.33593092D-03  0.41520924D-03  0.47171065D-04 -0.14143213D-03 -0.15604637D-03
  0.26240006D-04 -0.23500982D-04  0.98072467D-05 -0.14603971D-04 -0.46424211D-06
  0.25089843D+01  0.33794844D+01  0.38738238D+01  0.33948991D+01  0.19243772D+01
  0.49751306D+02  0.67012678D+02  0.76815063D+02  0.67318342D+02  0.38158978D+02
 -0.62782568D+00 -0.84565179D+00 -0.96935084D+00 -0.84950904D+00 -0.48153885D+00
  0.51541297D+00  0.10218435D+02 -0.12897144D+00  0.34196739D-01  0.68016751D+00
 -0.85677583D-02 -0.12055954D-02 -0.25119741D-01  0.30595015D-03  0.15388084D-03
  0.36440018D-02 -0.40263776D-04 -0.55597845D-05 -0.36574128D-03  0.23585346D-05
 -0.70179327D-05 -0.54019927D-04  0.30706701D-05 -0.30959853D-03 -0.18197324D-03
 -0.67828196D-04  0.56672043D-03  0.33310219D-03  0.12415958D-03 -0.25712189D-03
 -0.15112896D-03 -0.56331385D-04  0.11715281D-04  0.68859099D-05  0.25666348D-05
  0.51671652D-04  0.30371132D-04  0.11320451D-04 -0.53045139D-04 -0.31178429D-04
 -0.11621360D-04  0.10613581D-04 -0.13751449D-04  0.31378675D-05 -0.26101475D-05
 -0.63852171D-05  0.49534867D-05 -0.21658067D-05  0.54011412D-05 -0.32353345D-05
  0.13373222D-05  0.37195237D-05 -0.26684150D-05 -0.24302655D-05 -0.98589210D-05
  0.12289186D-04 -0.10908617D-05 -0.31966259D-05  0.28462717D-05 -0.11150621D-04
  0.11122790D-03  0.10249718D-05  0.37317155D-04 -0.32321248D-03  0.51001264D-05
 -0.38652907D-05 -0.10471231D-04 -0.81750418D-05 -0.66276071D-06  0.30609059D-06
  0.56294786D-06  0.92142506D-06  0.12417371D-05  0.12283425D-05  0.13671803D-06
 -0.58124757D-05 -0.15537012D-04  0.22191482D-07  0.17734660D-04  0.18208985D-04
  0.13761324D-04  0.12564706D-03  0.12900757D-03  0.97496651D-04  0.10694882D-05
  0.10980924D-05  0.82987634D-06 -0.15884984D-04 -0.15678376D-04 -0.87462765D-04
 -0.19363813D-05  0.68405373D-04  0.15419872D-04 -0.72738571D-04  0.72939465D-05
  0.24140048D-03 -0.12883398D-06 -0.52219608D-04 -0.14152459D-05 -0.61103580D-04
  0.59532410D-04  0.15711700D-05  0.28542071D-04 -0.12984700D-04 -0.77692323D-06
  0.14011459D-05  0.25274674D-05  0.37261531D-05 -0.34302459D-04 -0.69031078D-05
  0.12990839D-04 -0.15803117D-04  0.34664485D-04  0.10093605D-04  0.16820988D-06
  0.30936394D-06  0.50636251D-06  0.68238770D-06  0.67502678D-06  0.75132407D-07
 -0.20352952D-05 -0.54404368D-05  0.77705645D-08  0.93769510D-05  0.96277436D-05
  0.72761061D-05  0.26293556D-04  0.26996795D-04  0.20402656D-04  0.29858964D-05
  0.30657561D-05  0.23169257D-05  0.10598769D-04 -0.10709042D-04 -0.12485183D-04
 -0.33671711D-05 -0.16233742D-04  0.23028215D-04  0.12555313D-03  0.41609737D-05
 -0.16863064D-04 -0.59336645D-05 -0.99754874D-05 -0.25556162D-05  0.21071093D-04
 -0.30581672D-04  0.95105786D-05  0.12378625D-03  0.89870282D-05  0.11878357D-03
 -0.49028948D-05 -0.88441228D-05 -0.13038568D-04  0.11302083D-03 -0.19244326D-04
 -0.15413112D-05 -0.76997898D-04  0.51852677D-04 -0.35389084D-04  0.32676164D-06
  0.60096512D-06  0.98365117D-06  0.13255947D-05  0.13112955D-05  0.14595093D-06
 -0.45822329D-05 -0.12248517D-04  0.17494532D-07 -0.30916189D-05 -0.31743063D-05
 -0.23989618D-05  0.30688170D-04  0.31508945D-04  0.23812685D-04 -0.10878495D-04
 -0.11169448D-04 -0.84412392D-05  0.51184111D-05  0.27523736D-05 -0.40281819D-04
  0.11859293D-04  0.31938728D-04 -0.37395693D-05  0.68652496D-04  0.57479200D-04
 -0.28089512D-04  0.88268081D-05 -0.75616898D-06 -0.75204132D-05  0.30747772D-04
 -0.21638601D-04 -0.91091718D-05 -0.16868327D-05  0.65944441D-05 -0.79121606D-04
  0.19147406D-05  0.34539189D-05  0.50919869D-05 -0.61317549D-04  0.32391115D-04
  0.11892797D-05 -0.61517166D-04 -0.19140576D-04  0.10161225D-05 -0.19609119D-06
 -0.36064197D-06 -0.59029366D-06 -0.79549557D-06 -0.78691455D-06 -0.87585836D-07
  0.21813400D-05  0.58308211D-05 -0.83281496D-08  0.17346733D-05  0.17810682D-05
  0.13460310D-05  0.30755488D-04  0.31578063D-04  0.23864921D-04  0.20741105D-05
  0.21295839D-05  0.16094195D-05 -0.94856041D-05 -0.22523547D-05 -0.16962395D-04
 -0.72704313D-06  0.11694761D-04  0.24186345D-04  0.12602627D-03 -0.49339343D-05
  0.25926582D-05 -0.43872063D-05 -0.17370209D-04 -0.82518336D-06 -0.14379429D-04
  0.18703915D-04 -0.43244859D-05 -0.12661876D-03 -0.19234288D-04 -0.12173528D-03
 -0.56083650D-05 -0.10116690D-04 -0.14914668D-04  0.10971283D-03 -0.52062702D-04
  0.15926162D-06  0.75012416D-04  0.30059489D-04  0.34297478D-04  0.41411425D-06