 Title Card Required
GAUSSIAN              1 MOL ORBITALS      3 PRIMITIVES        1 NUCLEI
  H    1    (CENTRE  1)   0.00000000  0.00000000  0.00000000  CHARGE =  1.0
CENTRE ASSIGNMENTS    1  1  1
TYPE ASSIGNMENTS      1  1  1
EXPONENTS  0.5447178D+01 0.8245472D+00 0.1831916D+00
MO    1     MO 0.0        OCC NO =    1.0000000  ORB. ENERGY =   -0.496199
  0.14829914D+00  0.20833133D+00  0.14315444D+00
END DATA
 TOTAL ENERGY =       -0.496198636018 THE VIRIAL(-V/T)=   1.96447698
