 Title Card Required
GAUSSIAN              1 MOL ORBITALS      6 PRIMITIVES        2 NUCLEI
  H    1    (CENTRE  1)   0.00000000  0.00000000  0.69430708  CHARGE =  1.0
  H    2    (CENTRE  2)   0.00000000  0.00000000 -0.69430708  CHARGE =  1.0
CENTRE ASSIGNMENTS    1  1  1  2  2  2
TYPE ASSIGNMENTS      1  1  1  1  1  1
EXPONENTS  0.5447178D+01 0.8245472D+00 0.1831916D+00 0.5447178D+01 0.8245472D+00
EXPONENTS  0.1831916D+00
MO    1     MO 0.0        OCC NO =    2.0000000  ORB. ENERGY =   -0.594242
  0.11543178D+00  0.16215911D+00  0.61973597D-01  0.11543178D+00  0.16215911D+00
  0.61973597D-01
END DATA
 TOTAL ENERGY =       -1.122959837505 THE VIRIAL(-V/T)=   2.00185061
