 Title Card Required
GAUSSIAN              1 MOL ORBITALS      8 PRIMITIVES        2 NUCLEI
  H    1    (CENTRE  1)   0.00000000  0.00000000  0.68971192  CHARGE =  1.0
  H    2    (CENTRE  2)   0.00000000  0.00000000 -0.68971192  CHARGE =  1.0
CENTRE ASSIGNMENTS    1  1  1  1  2  2  2  2
TYPE ASSIGNMENTS      1  1  1  1  1  1  1  1
EXPONENTS  0.1873114D+02 0.2825394D+01 0.6401217D+00 0.1612778D+00 0.1873114D+02
EXPONENTS  0.2825394D+01 0.6401217D+00 0.1612778D+00
MO    1     MO 0.0        OCC NO =    2.0000000  ORB. ENERGY =   -0.598884
  0.70621139D-01  0.11978682D+00  0.13637306D+00  0.48843215D-01  0.70621139D-01
  0.11978682D+00  0.13637306D+00  0.48843215D-01
END DATA
 TOTAL ENERGY =       -1.126827825412 THE VIRIAL(-V/T)=   1.99252071
